# vtk DataFile Version 2.0
2D Surface
ASCII
DATASET UNSTRUCTURED_GRID
POINTS 3325 float
7.00136e-05 -4.518e-05 0. 
7.002e-05 -4.51803e-05 0. 
7.011e-05 -4.51862e-05 0. 
7.02e-05 -4.51939e-05 0. 
7.029e-05 -4.51908e-05 0. 
7.038e-05 -4.5195e-05 0. 
7.047e-05 -4.51883e-05 0. 
7.056e-05 -4.51941e-05 0. 
7.065e-05 -4.51976e-05 0. 
7.074e-05 -4.51993e-05 0. 
7.083e-05 -4.52058e-05 0. 
7.092e-05 -4.52086e-05 0. 
7.101e-05 -4.52144e-05 0. 
7.11e-05 -4.52104e-05 0. 
7.119e-05 -4.52114e-05 0. 
7.128e-05 -4.52174e-05 0. 
7.137e-05 -4.52167e-05 0. 
7.146e-05 -4.52193e-05 0. 
7.155e-05 -4.52191e-05 0. 
7.164e-05 -4.52174e-05 0. 
7.173e-05 -4.52223e-05 0. 
7.182e-05 -4.52218e-05 0. 
7.191e-05 -4.52197e-05 0. 
7.2e-05 -4.52252e-05 0. 
7.209e-05 -4.52293e-05 0. 
7.218e-05 -4.52253e-05 0. 
7.227e-05 -4.52286e-05 0. 
7.236e-05 -4.52272e-05 0. 
7.245e-05 -4.52271e-05 0. 
7.254e-05 -4.52236e-05 0. 
7.263e-05 -4.52234e-05 0. 
7.272e-05 -4.52321e-05 0. 
7.281e-05 -4.52335e-05 0. 
7.29e-05 -4.52356e-05 0. 
7.299e-05 -4.52374e-05 0. 
7.308e-05 -4.52383e-05 0. 
7.317e-05 -4.5238e-05 0. 
7.326e-05 -4.52378e-05 0. 
7.335e-05 -4.52326e-05 0. 
7.344e-05 -4.52323e-05 0. 
7.353e-05 -4.5229e-05 0. 
7.362e-05 -4.52295e-05 0. 
7.371e-05 -4.5224e-05 0. 
7.38e-05 -4.52325e-05 0. 
7.389e-05 -4.52325e-05 0. 
7.398e-05 -4.52264e-05 0. 
7.407e-05 -4.52282e-05 0. 
7.416e-05 -4.52257e-05 0. 
7.425e-05 -4.52348e-05 0. 
7.434e-05 -4.52335e-05 0. 
7.443e-05 -4.52348e-05 0. 
7.452e-05 -4.52354e-05 0. 
7.461e-05 -4.5239e-05 0. 
7.47e-05 -4.52314e-05 0. 
7.479e-05 -4.52267e-05 0. 
7.488e-05 -4.52302e-05 0. 
7.497e-05 -4.52373e-05 0. 
7.506e-05 -4.52378e-05 0. 
7.515e-05 -4.52378e-05 0. 
7.524e-05 -4.52487e-05 0. 
7.533e-05 -4.52507e-05 0. 
7.542e-05 -4.52473e-05 0. 
7.551e-05 -4.52431e-05 0. 
7.56e-05 -4.52373e-05 0. 
7.569e-05 -4.52362e-05 0. 
7.578e-05 -4.52377e-05 0. 
7.587e-05 -4.52363e-05 0. 
7.596e-05 -4.52332e-05 0. 
7.605e-05 -4.52277e-05 0. 
7.614e-05 -4.52234e-05 0. 
7.623e-05 -4.52243e-05 0. 
7.632e-05 -4.52276e-05 0. 
7.641e-05 -4.52204e-05 0. 
7.65e-05 -4.52201e-05 0. 
7.659e-05 -4.52201e-05 0. 
7.668e-05 -4.5229e-05 0. 
7.677e-05 -4.52313e-05 0. 
7.686e-05 -4.52271e-05 0. 
7.695e-05 -4.52301e-05 0. 
7.704e-05 -4.52256e-05 0. 
7.713e-05 -4.52224e-05 0. 
7.722e-05 -4.52189e-05 0. 
7.731e-05 -4.52296e-05 0. 
7.74e-05 -4.52272e-05 0. 
7.749e-05 -4.52148e-05 0. 
7.758e-05 -4.52195e-05 0. 
7.767e-05 -4.52158e-05 0. 
7.776e-05 -4.521e-05 0. 
7.785e-05 -4.52088e-05 0. 
7.794e-05 -4.52015e-05 0. 
7.803e-05 -4.52001e-05 0. 
7.812e-05 -4.52002e-05 0. 
7.821e-05 -4.51987e-05 0. 
7.83e-05 -4.51967e-05 0. 
7.839e-05 -4.51894e-05 0. 
7.848e-05 -4.51879e-05 0. 
7.857e-05 -4.51927e-05 0. 
7.866e-05 -4.51903e-05 0. 
7.875e-05 -4.51838e-05 0. 
7.88339e-05 -4.518e-05 0. 
7.93784e-05 -4.518e-05 0. 
7.938e-05 -4.518e-05 0. 
7.93803e-05 -4.518e-05 0. 
6.81259e-05 -4.509e-05 0. 
6.813e-05 -4.50904e-05 0. 
6.822e-05 -4.51023e-05 0. 
6.831e-05 -4.51065e-05 0. 
6.84e-05 -4.51004e-05 0. 
6.849e-05 -4.51045e-05 0. 
6.858e-05 -4.51069e-05 0. 
6.867e-05 -4.51133e-05 0. 
6.876e-05 -4.51231e-05 0. 
6.885e-05 -4.51325e-05 0. 
6.894e-05 -4.51385e-05 0. 
6.903e-05 -4.51468e-05 0. 
6.912e-05 -4.51523e-05 0. 
6.921e-05 -4.51551e-05 0. 
6.93e-05 -4.51587e-05 0. 
6.939e-05 -4.51638e-05 0. 
6.948e-05 -4.51667e-05 0. 
6.957e-05 -4.51618e-05 0. 
6.966e-05 -4.5164e-05 0. 
6.975e-05 -4.51707e-05 0. 
6.984e-05 -4.51759e-05 0. 
6.993e-05 -4.51765e-05 0. 
7.884e-05 -4.51797e-05 0. 
7.893e-05 -4.51796e-05 0. 
7.902e-05 -4.51756e-05 0. 
7.911e-05 -4.51705e-05 0. 
7.92e-05 -4.51745e-05 0. 
7.929e-05 -4.51789e-05 0. 
7.947e-05 -4.51748e-05 0. 
7.956e-05 -4.51703e-05 0. 
7.965e-05 -4.51728e-05 0. 
7.974e-05 -4.51732e-05 0. 
7.983e-05 -4.51716e-05 0. 
7.992e-05 -4.5168e-05 0. 
8.001e-05 -4.51675e-05 0. 
8.01e-05 -4.51685e-05 0. 
8.019e-05 -4.51682e-05 0. 
8.028e-05 -4.51541e-05 0. 
8.037e-05 -4.51638e-05 0. 
8.046e-05 -4.51664e-05 0. 
8.055e-05 -4.51689e-05 0. 
8.064e-05 -4.51686e-05 0. 
8.073e-05 -4.51643e-05 0. 
8.082e-05 -4.51603e-05 0. 
8.091e-05 -4.51514e-05 0. 
8.1e-05 -4.5152e-05 0. 
8.109e-05 -4.51451e-05 0. 
8.118e-05 -4.51487e-05 0. 
8.127e-05 -4.51478e-05 0. 
8.136e-05 -4.51498e-05 0. 
8.145e-05 -4.51473e-05 0. 
8.154e-05 -4.514e-05 0. 
8.163e-05 -4.51435e-05 0. 
8.172e-05 -4.51381e-05 0. 
8.181e-05 -4.51374e-05 0. 
8.19e-05 -4.51355e-05 0. 
8.199e-05 -4.51316e-05 0. 
8.208e-05 -4.51251e-05 0. 
8.217e-05 -4.51144e-05 0. 
8.226e-05 -4.51082e-05 0. 
8.235e-05 -4.51076e-05 0. 
8.244e-05 -4.51035e-05 0. 
8.253e-05 -4.50961e-05 0. 
8.26175e-05 -4.509e-05 0. 
6.63194e-05 -4.5e-05 0. 
6.633e-05 -4.50011e-05 0. 
6.642e-05 -4.50018e-05 0. 
6.651e-05 -4.50037e-05 0. 
6.66e-05 -4.50041e-05 0. 
6.669e-05 -4.5005e-05 0. 
6.678e-05 -4.50174e-05 0. 
6.687e-05 -4.50206e-05 0. 
6.696e-05 -4.5028e-05 0. 
6.705e-05 -4.50336e-05 0. 
6.714e-05 -4.50359e-05 0. 
6.723e-05 -4.50358e-05 0. 
6.732e-05 -4.50384e-05 0. 
6.741e-05 -4.50431e-05 0. 
6.75e-05 -4.50551e-05 0. 
6.759e-05 -4.50701e-05 0. 
6.768e-05 -4.50729e-05 0. 
6.777e-05 -4.50746e-05 0. 
6.786e-05 -4.50771e-05 0. 
6.795e-05 -4.50811e-05 0. 
6.804e-05 -4.50812e-05 0. 
8.262e-05 -4.50898e-05 0. 
8.271e-05 -4.50829e-05 0. 
8.28e-05 -4.50776e-05 0. 
8.289e-05 -4.50743e-05 0. 
8.298e-05 -4.50689e-05 0. 
8.307e-05 -4.50586e-05 0. 
8.316e-05 -4.50497e-05 0. 
8.325e-05 -4.50482e-05 0. 
8.334e-05 -4.50395e-05 0. 
8.343e-05 -4.50311e-05 0. 
8.352e-05 -4.50281e-05 0. 
8.361e-05 -4.502e-05 0. 
8.37e-05 -4.50152e-05 0. 
8.379e-05 -4.50169e-05 0. 
8.388e-05 -4.50134e-05 0. 
8.397e-05 -4.50066e-05 0. 
8.40394e-05 -4.5e-05 0. 
6.49915e-05 -4.491e-05 0. 
6.507e-05 -4.49137e-05 0. 
6.516e-05 -4.49215e-05 0. 
6.525e-05 -4.49237e-05 0. 
6.534e-05 -4.49263e-05 0. 
6.543e-05 -4.49322e-05 0. 
6.552e-05 -4.49468e-05 0. 
6.561e-05 -4.49515e-05 0. 
6.57e-05 -4.49542e-05 0. 
6.579e-05 -4.4965e-05 0. 
6.588e-05 -4.49701e-05 0. 
6.597e-05 -4.49786e-05 0. 
6.606e-05 -4.49799e-05 0. 
6.615e-05 -4.4984e-05 0. 
6.624e-05 -4.49921e-05 0. 
8.406e-05 -4.49981e-05 0. 
8.415e-05 -4.49924e-05 0. 
8.424e-05 -4.49878e-05 0. 
8.433e-05 -4.49872e-05 0. 
8.442e-05 -4.49814e-05 0. 
8.451e-05 -4.49765e-05 0. 
8.46e-05 -4.49688e-05 0. 
8.469e-05 -4.49643e-05 0. 
8.478e-05 -4.49628e-05 0. 
8.487e-05 -4.49521e-05 0. 
8.496e-05 -4.49461e-05 0. 
8.505e-05 -4.49416e-05 0. 
8.514e-05 -4.49371e-05 0. 
8.523e-05 -4.49324e-05 0. 
8.532e-05 -4.49247e-05 0. 
8.541e-05 -4.49168e-05 0. 
8.55e-05 -4.49103e-05 0. 
8.55109e-05 -4.491e-05 0. 
6.34364e-05 -4.482e-05 0. 
6.345e-05 -4.4822e-05 0. 
6.354e-05 -4.48269e-05 0. 
6.363e-05 -4.48293e-05 0. 
6.372e-05 -4.48344e-05 0. 
6.381e-05 -4.48373e-05 0. 
6.39e-05 -4.48405e-05 0. 
6.399e-05 -4.48457e-05 0. 
6.408e-05 -4.48519e-05 0. 
6.417e-05 -4.48617e-05 0. 
6.426e-05 -4.48689e-05 0. 
6.435e-05 -4.48757e-05 0. 
6.444e-05 -4.48783e-05 0. 
6.453e-05 -4.48829e-05 0. 
6.462e-05 -4.48853e-05 0. 
6.471e-05 -4.48944e-05 0. 
6.48e-05 -4.4899e-05 0. 
6.489e-05 -4.49063e-05 0. 
6.498e-05 -4.49095e-05 0. 
8.559e-05 -4.49078e-05 0. 
8.568e-05 -4.48962e-05 0. 
8.577e-05 -4.48911e-05 0. 
8.586e-05 -4.4887e-05 0. 
8.595e-05 -4.48759e-05 0. 
8.604e-05 -4.48664e-05 0. 
8.613e-05 -4.48558e-05 0. 
8.622e-05 -4.48434e-05 0. 
8.631e-05 -4.48298e-05 0. 
8.63817e-05 -4.482e-05 0. 
6.26801e-05 -4.473e-05 0. 
6.273e-05 -4.47397e-05 0. 
6.282e-05 -4.47492e-05 0. 
6.291e-05 -4.47604e-05 0. 
6.3e-05 -4.47676e-05 0. 
6.309e-05 -4.47804e-05 0. 
6.318e-05 -4.47931e-05 0. 
6.327e-05 -4.48003e-05 0. 
6.336e-05 -4.48091e-05 0. 
8.64e-05 -4.48175e-05 0. 
8.649e-05 -4.4807e-05 0. 
8.658e-05 -4.4801e-05 0. 
8.667e-05 -4.47973e-05 0. 
8.676e-05 -4.47897e-05 0. 
8.685e-05 -4.47854e-05 0. 
8.694e-05 -4.47783e-05 0. 
8.703e-05 -4.47708e-05 0. 
8.712e-05 -4.47592e-05 0. 
8.721e-05 -4.47446e-05 0. 
8.72782e-05 -4.473e-05 0. 
6.22915e-05 -4.464e-05 0. 
6.237e-05 -4.46623e-05 0. 
6.246e-05 -4.46809e-05 0. 
6.255e-05 -4.47037e-05 0. 
6.264e-05 -4.47222e-05 0. 
8.73e-05 -4.47253e-05 0. 
8.739e-05 -4.47113e-05 0. 
8.748e-05 -4.46897e-05 0. 
8.757e-05 -4.46722e-05 0. 
8.766e-05 -4.46425e-05 0. 
8.76742e-05 -4.464e-05 0. 
6.20061e-05 -4.455e-05 0. 
6.201e-05 -4.45539e-05 0. 
6.21e-05 -4.45854e-05 0. 
6.219e-05 -4.46147e-05 0. 
6.228e-05 -4.46367e-05 0. 
8.775e-05 -4.46265e-05 0. 
8.784e-05 -4.45813e-05 0. 
8.793e-05 -4.45737e-05 0. 
8.79539e-05 -4.455e-05 0. 
6.19243e-05 -4.446e-05 0. 
8.802e-05 -4.44842e-05 0. 
8.80442e-05 -4.446e-05 0. 
6.18869e-05 -4.437e-05 0. 
6.192e-05 -4.44496e-05 0. 
8.80898e-05 -4.437e-05 0. 
6.18795e-05 -4.428e-05 0. 
8.80998e-05 -4.428e-05 0. 
6.18775e-05 -4.419e-05 0. 
8.81024e-05 -4.419e-05 0. 
6.1876e-05 -4.41e-05 0. 
8.81041e-05 -4.41e-05 0. 
6.18766e-05 -4.401e-05 0. 
8.81056e-05 -4.401e-05 0. 
6.18765e-05 -4.392e-05 0. 
8.81066e-05 -4.392e-05 0. 
6.18779e-05 -4.383e-05 0. 
8.81083e-05 -4.383e-05 0. 
6.188e-05 -4.374e-05 0. 
8.81089e-05 -4.374e-05 0. 
6.18802e-05 -4.365e-05 0. 
8.811e-05 -4.37021e-05 0. 
8.81115e-05 -4.365e-05 0. 
6.18807e-05 -4.356e-05 0. 
8.81103e-05 -4.356e-05 0. 
6.18794e-05 -4.347e-05 0. 
8.81105e-05 -4.347e-05 0. 
6.18797e-05 -4.338e-05 0. 
8.81116e-05 -4.338e-05 0. 
6.18794e-05 -4.329e-05 0. 
8.81153e-05 -4.329e-05 0. 
6.18771e-05 -4.32e-05 0. 
8.8114e-05 -4.32e-05 0. 
6.18762e-05 -4.311e-05 0. 
8.81162e-05 -4.311e-05 0. 
6.18811e-05 -4.302e-05 0. 
8.81155e-05 -4.302e-05 0. 
6.18808e-05 -4.293e-05 0. 
8.81201e-05 -4.293e-05 0. 
6.18819e-05 -4.284e-05 0. 
8.81216e-05 -4.284e-05 0. 
6.18821e-05 -4.275e-05 0. 
8.81253e-05 -4.275e-05 0. 
6.18795e-05 -4.266e-05 0. 
8.81236e-05 -4.266e-05 0. 
6.18813e-05 -4.257e-05 0. 
8.81218e-05 -4.257e-05 0. 
6.18741e-05 -4.248e-05 0. 
8.81199e-05 -4.248e-05 0. 
6.18762e-05 -4.239e-05 0. 
8.81262e-05 -4.239e-05 0. 
6.18799e-05 -4.23e-05 0. 
8.81252e-05 -4.23e-05 0. 
6.18725e-05 -4.221e-05 0. 
8.81241e-05 -4.221e-05 0. 
6.18727e-05 -4.212e-05 0. 
8.81242e-05 -4.212e-05 0. 
6.18743e-05 -4.203e-05 0. 
8.81253e-05 -4.203e-05 0. 
6.18724e-05 -4.194e-05 0. 
8.81249e-05 -4.194e-05 0. 
6.18711e-05 -4.185e-05 0. 
[...]
POINT_DATA 3325
SCALARS Coverage0 float 1
LOOKUP_TABLE default
0.184214
0.184214
0.1829
0.190362
0.163159
0.158574
0.166084
0.171959
0.18252
0.196811
0.190943
0.188824
0.198606
0.193966
0.178492
0.186737
0.199905
0.218712
0.209456
0.174948
0.179302
0.177801
0.1858
0.191496
0.180651
0.181163
0.184645
0.189675
0.205544
0.200336
0.182859
0.203733
0.202349
0.194678
0.197672
0.201069
0.175443
0.166395
0.169219
0.18446
0.16504
0.161386
0.166831
0.188335
0.169404
0.177061
0.174516
0.180263
0.187605
0.176856
0.191398
0.20689
0.211324
0.221929
0.19542
0.19332
0.169986
0.186111
0.196604
0.206849
0.191886
0.197039
0.177011
0.191424
0.174619
0.163438
0.188658
0.171413
0.177968
0.186297
0.181681
0.192149
0.180061
0.186015
0.20914
0.202406
0.183882
0.183105
0.172109
0.189409
0.179152
0.179197
0.196224
0.19749
0.214837
0.197094
0.204673
0.209883
0.19142
0.167126
0.146565
0.190862
0.175035
0.169178
0.187653
0.189763
0.189742
0.186248
0.183522
0.209593
0.179425
0.179425
0.179425
0.169623
0.169623
0.197153
0.200863
0.194767
0.171006
0.155306
0.16911
0.172281
0.198052
0.185115
0.191556
0.183673
0.197601
0.189931
0.18975
0.181706
0.17949
0.216547
0.205736
0.168531
0.18008
0.209593
0.196286
0.222172
0.223071
0.188782
0.184909
0.18493
0.190853
0.214939
0.176122
0.16473
0.1747
0.156749
0.160751
0.175409
0.161628
0.186665
0.206063
0.184831
0.180557
0.161064
0.164066
0.181403
0.170205
0.190492
0.17598
0.18598
0.211454
0.182899
0.193105
0.184327
0.171391
0.175232
0.182112
0.171239
0.20846
0.216248
0.185168
0.190316
0.212348
0.195227
0.187934
0.185484
0.185484
0.163139
0.150071
0.176367
0.181246
0.195655
0.178518
0.182477
0.184544
0.171651
0.215004
0.18974
0.191539
0.183056
0.202126
0.222788
0.220638
0.213929
0.203293
0.156323
0.187934
0.184133
0.181213
0.187155
0.18979
0.177157
0.167114
0.181263
0.202446
0.199503
0.168995
0.191721
0.171064
0.162088
0.17742
0.189855
0.196961
0.210428
0.20226
0.171052
0.163592
0.175638
0.185867
0.178495
0.163446
0.188475
0.191463
0.17763
0.160005
0.183547
0.187731
0.174801
0.196961
0.179511
0.190904
0.172732
0.196542
0.215842
0.196352
0.191832
0.184199
0.166557
0.1864
0.212366
0.178107
0.173013
0.185094
0.165791
0.173866
0.173866
0.186147
0.186147
0.160314
0.187995
0.169694
0.158837
0.160872
0.162565
0.15998
0.179728
0.166149
0.155211
0.200591
0.198842
0.186242
0.169093
0.183192
0.192267
0.210428
0.136932
0.180285
0.21978
0.179684
0.18165
0.176525
0.16162
0.17073
0.168251
0.1539
0.168726
0.148315
0.163514
0.174959
0.168699
0.185938
0.16689
0.163006
0.172891
0.1539
0.183262
0.181315
0.192852
0.192403
0.178147
0.179439
0.167473
0.172859
0.166176
0.179715
0.19551
0.216134
0.217618
0.18794
0.168726
0.179715
0.211941
0.204648
0.193874
0.181572
0.181572
0.27794
0.27794
0.2377
0.200001
0.19551
0.210465
0.21017
0.241298
0.241298
0.36751
0.328162
0.328162
0.616592
0.36751
0.545998
0.876509
0.787416
0.947857
0.928449
0.795568
0.920577
0.865682
0.935188
0.691988
0.883305
0.485553
0.935529
0
0.938998
0.681419
0.938998
0.933917
0.953766
0.970374
0.981406
0.968398
0.975626
0.888559
0.965984
0.930078
0.854328
0.988286
0.780294
0.900033
0
0.942457
0.986811
0.85376
0.955269
0.918479
0.690637
0.862141
0.904625
0.895578
0.823572
0.951887
0.808687
0.877757
0.910649
0.83067
0.877099
0.514598
0.89666
0.930781
0.967947
0.922756
0.936612
0.833361
0.670077
0.905887
0.869544
0.794777
0.842615
0.946477
0.885116
0.975971
0.941434
0.566954
0.82568
0.533933
0.709713
0.963455
0.407008
0.862246
0.92966
0.775797
0
0.862081
0.901661
0.993278
0.847789
0.875427
0.961912
0.916187
0.80795
0.898865
0.853347
0.922701
0.793995
0.99312
0.899826
0.98383
0.751912
0.938187
0.59054
0.795197
0.298143
0.892328
0
0.762081
0
0.959185
0.941144
0.854203
0.930682
0.804471
0.88045
0.732756
0
0.818089
0.998227
0.885335
0.958942
0.925433
0.998414
0.861081
0.977464
0.777748
0.909793
0.843362
0.931084
0.899697
0.902094
0.89982
0.955616
0.776266
0.996341
0.910686
0.982292
0.989195
0.802441
0.958466
0.83263
0.930179
0.902197
0.9703
0.771373
1
0.769034
0.769034
0.99754
0.910232
0.841109
0.801735
0.838148
0
0.995508
1
1
0.999485
0.765011
1
1
0
1
0
0.796767
1
0.803038
0.797434
0.804193
0.829153
0.87114
1
0.856551
0.902759
0.952574
0.961328
0.947864
0.450812
0.97639
0.824163
0.969586
0.767032
0.95605
0.692068
0.692068
0.998337
0.869692
0.869692
0.996483
0.869692
0.650508
0.976738
0.927643
0.999252
0.935138
0.883846
0.790841
0.935138
0.990767
0.877418
0.980286
0.808194
0.671741
0.398032
1
0
0.220102
0
0.939427
0
0.89072
0.839268
0.929064
0.775755
0.957989
0.781877
0.973267
0.884435
0.989697
1
0.894161
0
0.64249
0.853437
0.822755
0.879007
0.908945
0
0.892064
1
1
1
1
1
0
0
0.805845
0
0.698695
0
0.698695
0.805625
1
1
0
1
0.973404
1
0.786633
0.786633
1
1
0
0
0.939953
0
0.834127
1
0.590612
1
0.991738
0.996724
0.77675
0.77675
0.951608
0.864225
0.939631
1
0.819091
0.599617
0.599617
0.933191
0.599617
0.894957
0.859445
0.980813
0.860754
1
0.823608
0.748109
0.801118
0.838372
0.932921
0.672478
0.552983
1
0.779031
0
0.809905
0.83916
0.772781
0.988036
0
0.772781
1
0
0.65878
0
0.779619
0
0
0.999061
1
0.962463
0.835298
1
1
1
1
1
0.842231
1
1
0.792554
0
0.973063
1
0.874219
0
0.891226
0.923941
0.891226
1
0.856516
1
0.898735
0.741488
0.7909
0.7909
0
0
0.867233
0
0.810038
0
0.749034
0.749034
1
0.749034
1
0
0.811186
1
0.819152
0
0.658718
0
0
1
0.658718
0.736195
1
0.838775
0.838775
0
0.854149
0
0.873385
0
0
0
0
0.973164
1
0.892025
0
1
1
0
0
1
0.995104
0
0.864299
0
0
0.917154
0
0.936511
0.809128
0.809128
0.901416
0.755385
1
0
0
1
0
0
0.797976
1
1
1
1
0
1
1
0
0
1
1
0.874197
0.874197
1
0.864797
0
0
1
1
1
0
1
1
0.836113
1
0.836113
0.91534
1
0
1
0
1
0
1
1
1
1
0.983993
0.983993
0
0.815367
0.983993
1
0
0.815367
1
1
0
1
1
0
0.840615
0
1
0.948121
1
0.818588
1
0.827225
0.818588
0
1
1
1
1
1
1
1
1
0
1
1
0.733835
0.733835
0.835207
0.835207
1
1
1
0.835207
0.681548
0.681548
1
1
0.681548
0.74373
1
0.74373
1
1
1
1
0
0
1
0
0
0
0
0
0.821025
0
1
1
0.890079
0.890079
0.900759
0.900759
1
1
0.956152
0.900759
0.798695
1
1
1
1
0.956152
1
1
1
1
0
0
1
0
1
0
0
1
0
0.772045
0
0.785777
0.785777
0
0.811999
0
0
0.604045
1
0
0
1
0.892873
1
0.879497
0.892873
1
1
1
1
0
1
0
1
1
1
0
0
1
1
0
1
1
1
1
0
0.830596
0
0.713052
1
0.830596
0.713052
0.603485
0
1
1
1
1
0
1
0
0
1
0.567829
0
1
0.752506
1
1
0.815518
0.815518
0.799676
0.799676
0
0
1
0
1
1
0
1
1
1
1
1
0
1
0.773844
0
0
0.773844
0
0
1
0.933036
0
0
1
1
0
0
1
1
0
0.609883
1
0.609883
1
0
0
1
0
1
0
1
0
0
0
0.842401
0
0
0
0
0.842401
0
0
0
0
0
0
0
0.83535
0.83535
0
0
0
0.83535
0
1
1
1
0
1
0
0.929919
0.929919
1
0.73418
0.73418
0.929919
1
1
1
0.797913
0.98433
0.98433
0
0
0.933351
0.933351
0.98433
0.501255
0
0.749899
0.933351
0
1
1
1
1
0.749899
0
0
0.829959
0.829959
0
0
0
1
0.829959
0
1
1
1
1
1
0
1
1
1
1
1
1
1
1
1
0
1
0
0.999615
0.999615
0
0
0.999615
1
1
0
1
0
0.922619
0.922619
0
1
0
0.922619
0.912958
0
0
0
0
1
0.912958
1
1
1
0
0
0
0.938156
0.938156
1
0.696879
0.696879
0.938156
1
1
1
1
1
1
1
0.882185
0.882185
0
0.748143
0.882185
1
1
0
1
1
0.748143
1
0
1
1
0.937842
0.937842
1
1
0.821348
0.937842
1
0.7998
0
0.78969
0
0
0.78969
1
0
0
0
0.995246
0.995246
0
1
0
1
0.995246
0.828221
0.828221
0
0.948853
0.948853
0.953035
1
1
1
1
0.948853
0.953035
1
0
1
1
1
1
0
0
0
0
0
0.894094
0.894094
0
0
1
0
0.894094
0
1
0
0
0
1
0
0
0
1
1
1
0
1
0.990529
0.990529
1
0.795449
0.795449
0.990529
0.948327
0.948327
1
0.818622
0.948327
0.806961
0.762741
0.806961
0
0
1
0.762741
0
0
0
0
0
1
1
0
0.785037
0.946745
1
0.973156
1
1
0.973156
0
0
0
1
0
1
0
0
0
1
0
1
0
1
1
0
1
0
0
0
1
0
1
1
0
0
0
1
0.7859
0
0.853729
0
0
1
0
0
1
1
1
1
1
1
1
1
1
0.9596
0.9596
0
1
0
0.9596
0.914067
0.914067
0
1
1
1
0
0
0
0.952295
0.952295
0.463457
1
0.731253
0.952295
0.463457
0.849924
0.849924
0.817915
0.817915
0
0.902876
0.984959
0.984959
0.983984
0
1
0
0.902876
0.984959
0.983984
0.879629
0.879629
1
0.929927
0.929927
1
0.929927
0.889986
1
1
1
1
1
1
1
1
1
1
0
1
1
1
1
1
1
0
1
0
1
0.94196
0.94196
0
0.94196
1
0
1
1
1
1
0
0.942575
0.942575
0
0.826639
0.826639
0.942575
1
0
0
0.618863
0.618863
0.826639
1
1
1
0
1
1
0
1
0
0.958964
0.958964
0
0.808902
0.958964
0
1
0
0
0
0
0
1
1
1
1
0
1
0
1
1
1
1
0
1
0.961397
0.961397
0
0.663317
0.970176
0.970176
0.961397
0
1
1
0.791272
0.791272
0.663317
0.970176
0
0
1
0.791272
0.994291
0.981551
0.981551
0.773414
0.773414
0.981551
0
0
0
0.745885
1
1
0
0
0
0.902788
0
0.902788
1
1
0
0
0
1
1
1
0.99532
0.99532
0.794647
0
1
1
1
1
0.99532
0.794647
0
0.68749
1
0
0
0
0
0
1
0
0
1
1
0
0
0.778834
1
1
0.724325
0.724325
1
1
1
0
0
1
0.98835
0.98835
0
1
1
0.98835
0
0
1
0.773615
0
0.811504
0.811504
0
0
0
1
1
1
0
1
0
1
0.86954
0.86954
0.779549
1
1
0
0.86954
1
1
1
0
0
1
0.995354
0.985754
0.985754
0
0
0
0
0.70386
0.995354
0.985754
0
0
0
0
1
0
0
0
1
0.969074
0.969074
1
1
0.969074
0.857524
1
0
0.857524
0
0
0.647634
0
0
0
0
0.987092
0
1
0
0
0.985428
0.985428
1
0
0
0
1
0
1
0
0
1
1
0.781795
1
1
0.872593
0.872593
1
1
0
0
1
0.975728
0.975728
1
1
0.975728
0
1
1
0
1
1
1
0.985175
0.985175
1
0.734171
0.734171
0.985175
1
1
0.752498
0
0
0
0
0
0.707513
0.707513
1
1
0
0
1
0
0
1
0
1
0.78664
0
0.818802
0.818802
1
1
1
0
1
1
1
0
0
1
1
1
0
1
1
0
0
0.779169
0.779169
0
1
0.754498
0.779169
0.942498
0
0.754498
0.942498
0
0
0
0.856173
1
1
0.856173
1
0
0.962236
0.962236
0
0.513673
0.962236
0
0
0.69336
0
0
0.772366
0.772366
0
1
0
0
1
0
1
0
0
1
0
0
1
0
0
0
1
1
0.955872
0.955872
0
1
0.955872
0.600836
0.873265
1
1
1
1
0
0.880628
0.880628
0.903504
0.903504
1
0
1
1
1
0.990265
0.880628
0.903504
1
1
1
0.99696
0
0
0
0
0.99696
0
1
1
1
1
0
1
1
0
1
0
1
1
0
0.80442
0
0
0
1
0.743323
0
0
0
1
1
0.860397
0
0.860397
0.992396
0.992396
0
0.845438
0
0.992396
1
1
0
0
0
1
1
1
0.769685
1
1
1
1
1
1
0.927647
0.927647
1
1
0.927647
0.990977
0
0.802902
1
0.845696
1
1
0.845696
0
0
0
0
0.821532
0.821532
0
1
1
1
0
0.821532
1
0
0
0.891347
0.891347
0
1
0
0
0.891347
0.985288
0
1
0.981137
0.981137
0.985288
0
0
0
0
0
0
0.981137
1
1
1
1
1
1
0
1
1
0
0
1
1
0
0
0
0.698381
1
1
1
1
1
0.698381
0
0
1
0
0
1
1
0
1
1
0.995467
0.995467
1
1
0
0.995467
0.903113
0.903113
1
1
1
0
1
1
0
1
1
1
1
1
1
0.925975
0.925975
1
1
0.884951
0.875658
0.925975
0.517038
0.517038
1
0
0
0
0.517038
0.513736
1
1
1
1
1
0.953449
0.953449
1
1
1
0.953449
0.00933216
0.811365
0
0.515803
0
0.723102
0
0.868655
0.868655
0.723102
0.535205
0
0.738562
0.868655
0.535205
0
0
1
0
0.984493
0.984493
1
0
1
0.984493
1
0
0
1
1
0
1
0
0
0.889908
0.889908
0.978274
0.978274
0
1
0.889908
0.978274
0.764113
0.764113
1
1
1
1
1
1
1
1
0.928094
0.928094
1
1
0
0.953949
0.953949
0.928094
0
0
0.704654
0.953949
1
1
0
0
1
0.704654
0
0
0
0
0.9424
0.9424
1
0
0
0.9424
0.723479
0.723479
1
1
0
0.746809
1
1
0.746809
1
0
0.744234
0.744234
1
1
1
1
0.744234
0.752851
0.803425
0
1
1
0
0
0
0.860781
0.762767
0
1
0.860781
0.676379
1
0.998454
0.997065
0.997065
0.733065
0.738548
0.738548
0.998454
0.997065
0.733065
0.711587
0.770412
0.735899
0.735899
1
1
0.770412
1
1
0
0.973563
0.973563
0.93037
0.93037
1
0.763967
0.763967
0.00793532
0.973563
0.93037
0.727923
0.727923
1
0.858241
0
0.972228
0.972228
0.841109
0.758048
0.758048
0.386837
0.972228
0
0.758048
0.594286
0.639291
0.36215
0.353693
0.363075
0.36777
0.372306
0.352306
0.3529
0.353371
0.373449
0.383672
0.34744
0.370759
0.375693
0.379074
0.349967
0.362866
0.355943
0.392219
0.368844
0.364551
0.364479
0.364199
0.381774
0.348628
0.357914
0.37578
0.372869
0.367128
0.382017
0.382565
0.369543
0.347721
0.364912
0.370512
0.374513
0.371282
0.380695
0.359933
0.363206
0.3564
0.367553
0.367816
0.368605
0.371811
0.373025
0.380559
0.369802
0.364456
0.367709
0.365743
0.371548
0.346535
0.348858
0.383192
0.380495
0.36676
0.378754
0.369109
0.3753
0.351299
0.350146
0.365937
0.378652
0.366694
0.387724
0.381212
0.354265
0.379782
0.362271
0.356135
0.379643
0.363881
0.359299
0.362896
0.375778
0.362095
0.350195
0.356141
0.351886
0.376475
0.363472
0.374646
0.3707
0.366634
0.384981
0.376344
0.343708
0.364976
0.36218
0.368904
0.359494
0.353515
0.368929
0.363999
0.357188
0.390415
0.369367
0.366326
0.367252
0.372935
0.360565
0.354366
0.376949
0.378603
0.346177
0.383574
0.361431
0.351971
0.352349
0.37777
0.367359
0.353242
0.372672
0.354909
0.361777
0.365597
0.391969
0.371341
0.371649
0.369355
0.372605
0.365691
0.371378
0.379548
0.362173
0.352234
0.375435
0.359609
0.355636
0.350837
0.34987
0.395091
0.364756
0.334645
0.375119
0.358518
0.360335
0.362882
0.362403
0.37241
0.363749
0.367912
0.368173
0.370567
0.377958
0.368129
0.367886
0.355771
0.372939
0.365555
0.367067
0.364224
0.348501
0.369246
0.374699
0.361908
0.38426
0.348529
0.349295
0.369074
0.372372
0.370205
0.362925
0.373368
0.375028
0.379887
0.359134
0.353098
0.357284
0.374673
0.378737
0.382995
0.356002
0.3538
0.370836
0.37245
0.370258
0.385049
0.355866
0.343521
0.37765
0.378784
0.347147
0.367653
0.380264
0.367548
0.342547
0.36885
0.371439
0.365655
0.378842
0.363907
0.345746
0.364215
0.364862
0.370026
0.36432
0.375573
0.36027
0.359184
0.349289
0.372494
0.382243
0.359309
0.367814
0.375612
0.369587
0.378104
0.363908
0.364765
0.35559
0.376119
0.355532
0.363374
0.372671
0.377292
0.37005
0.361283
0.35548
0.368227
0.373797
0.372375
0.377909
0.362625
0.367557
0.371169
0.375202
0.35529
0.365206
0.360272
0.37736
0.361693
0.350821
0.363222
0.381083
0.34751
0.345713
0.362432
0.366791
0.381659
0.374326
0.371525
0.36589
0.368372
0.374459
0.380248
0.349414
0.371237
0.380603
0.353923
0.367764
0.356603
0.375159
0.392419
0.36961
0.361859
0.384101
0.3896
0.342551
0.357884
0.355783
0.367796
0.369177
0.375727
0.349478
0.368699
0.359295
0.368371
0.377634
0.37234
0.389366
0.361847
0.367674
0.369274
0.352711
0.364015
0.349328
0.377041
0.401695
0.351466
0.346936
0.375934
0.364576
0.360388
0.348484
0.351935
0.388691
0.39219
0.370769
0.358061
0.348817
0.362834
0.365689
0.365117
0.377551
0.362104
0.380466
0.378945
0.358388
0.357651
0.362597
0.383448
0.366147
0.349713
0.366719
0.352926
0.382377
0.368481
0.371394
0.372984
0.370933
0.361749
0.368422
0.368831
0.363159
0.373102
0.372782
0.372727
0.374621
0.356816
0.368799
0.379895
0.366206
0.353508
0.351933
0.36066
0.370602
0.362103
0.371928
0.371647
0.369004
0.366584
0.381512
0.353114
0.366874
0.365184
0.37125
0.355147
0.346027
0.362372
0.377056
0.371242
0.39058
0.36256
0.367817
0.359451
0.361431
0.363084
0.381572
0.357143
0.366618
0.369603
0.370057
0.369229
0.367337
0.349672
0.345005
0.357248
0.356713
0.367308
0.370179
0.374747
0.370269
0.362049
0.358809
0.35193
0.372903
0.35429
0.379422
0.363582
0.366675
0.343576
0.363813
0.366724
0.373705
0.353806
0.37298
0.368402
0.35975
0.368652
0.366462
0.376304
0.374855
0.362036
0.358251
0.362581
0.378891
0.358214
0.358348
0.365081
0.352463
0.389674
0.376778
0.353317
0.354588
0.366167
0.364518
0.363581
0.366135
0.359561
0.373209
0.369905
0.372403
0.371735
0.372385
0.347061
0.386704
0.355761
0.361599
0.362886
0.360366
0.363301
0.353363
0.377457
0.355337
0.357459
0.388497
0.371422
0.371779
0.362696
0.363426
0.373759
0.349513
0.35217
0.374533
0.367091
0.360119
0.365434
0.363797
0.361627
0.357141
0.371527
0.379391
0.366821
0.367964
0.368972
0.35994
0.359274
0.382249
0.354349
0.347712
0.358737
0.336773
0.376707
0.37775
0.377274
0.367926
0.378842
0.366765
0.361528
0.37143
0.364625
0.363911
0.377516
0.354951
0.351286
0.372077
0.362449
0.375244
0.361338
0.371116
0.361032
0.373985
0.369968
0.355021
0.34525
0.361137
0.382815
0.37016
0.385283
0.363517
0.363711
0.355701
0.384958
0.387799
0.370786
0.362375
0.341439
0.355509
0.383437
0.367494
0.361944
0.36419
0.36145
0.356595
0.362202
0.359549
0.359779
0.387397
0.388911
0.354696
0.356063
0.364437
0.374909
0.384597
0.370802
0.359243
0.374157
0.370564
0.352609
0.369682
0.352139
0.355806
0.365868
0.377962
0.365962
0.348966
0.368353
0.366386
0.368195
0.367607
0.369032
0.347158
0.370572
0.356977
0.369823
0.388718
0.364428
0.356847
0.36963
0.373946
0.374946
0.375064
0.356101
0.356627
0.386185
0.376905
0.356867
0.352573
0.374615
0.369145
0.371914
0.341101
0.361407
0.385388
0.360903
0.348146
0.36917
0.360509
0.372221
0.396278
0.380574
0.368016
0.360905
0.369563
0.363758
0.349873
0.353118
0.357908
0.377268
0.376436
0.361978
0.366879
0.384287
0.369918
0.369746
0.365033
0.348005
0.359802
0.367658
0.379691
0.361129
0.359734
0.385919
0.373943
0.380816
0.375277
0.359911
0.374213
0.36125
0.355897
0.386787
0.379361
0.351794
0.367536
0.377997
0.390502
0.361617
0.3722
0.356755
0.37286
0.36063
0.36398
0.366669
0.362709
0.357487
0.382814
0.37816
0.363787
0.376243
0.363954
0.378137
0.37971
0.366661
0.371015
0.377721
0.360191
0.370403
0.378845
0.360468
0.358927
0.368837
0.370876
0.35052
0.367004
0.379058
0.390206
0.359939
0.369458
0.371371
0.361687
0.366141
0.364025
0.371347
0.370853
0.36822
0.361066
0.358691
0.365751
0.391018
0.36757
0.354783
0.356048
0.375264
0.368876
0.372882
0.351441
0.347508
0.371619
0.363275
0.370497
0.373753
0.371573
0.374849
0.37016
0.350475
0.353217
0.360849
0.374012
0.397052
0.385431
0.372291
0.372245
0.365439
0.366184
0.366079
0.366608
0.357488
0.377951
0.369891
0.368784
0.368475
0.346091
0.349334
0.380142
0.357871
0.352227
0.3476
0.373021
0.379873
0.356388
0.3873
0.359505
0.35834
0.364059
0.364728
0.413219
0.376241
0.36787
0.377164
0.367128
0.381828
0.35883
0.369353
0.358593
0.363823
0.36573
0.356328
0.362213
0.387229
0.371354
0.365066
0.369637
0.375161
0.384137
0.354693
0.363219
0.350722
0.353938
0.364596
0.380131
0.365417
0.36484
0.365161
0.365634
0.375178
0.356667
0.347097
0.367202
0.371213
0.351716
0.356074
0.372248
0.361136
0.35563
0.361563
0.377823
0.375938
0.355018
0.358163
0.377226
0.361454
0.371545
0.357583
0.369739
0.369866
0.37768
0.355916
0.377049
0.376199
0.352216
0.352614
0.357143
0.365479
0.348685
0.366665
0.36457
0.37048
0.37883
0.372025
0.381313
0.352331
0.369543
0.365775
0.364457
0.353812
0.368817
0.368048
0.3503
0.382743
0.374701
0.363824
0.360132
0.350779
0.378042
0.354614
0.365213
0.363873
0.338711
0.358725
0.386148
0.380851
0.345696
0.352287
0.348885
0.367806
0.36264
0.366956
0.383267
0.378537
0.355917
0.351872
0.363802
0.355578
0.356946
0.374578
0.386547
0.372476
0.34988
0.352476
0.364998
0.386352
0.376446
0.355507
0.364283
0.363381
0.370259
0.387176
0.37379
0.360913
0.371096
0.350419
0.362483
0.375322
0.362215
0.385926
0.345411
0.354587
0.369817
0.372515
0.380283
0.35909
0.331599
0.376531
0.369545
0.37758
0.3672
0.364083
0.36407
0.347019
0.350064
0.379571
0.377669
0.37207
0.347582
0.35819
0.351629
0.390485
0.371789
0.35967
0.369764
0.365035
0.360727
0.363687
0.378413
0.367536
0.356774
0.346885
0.392434
0.384322
0.346401
0.362404
0.365522
0.372089
0.381232
0.378002
0.371684
0.360169
0.355385
0.356897
0.370469
0.352468
0.367303
0.359626
0.386291
0.382856
0.366845
0.373747
0.367776
0.37677
0.343797
0.355191
0.374447
0.379886
0.367212
0.391836
0.36778
0.351599
0.357846
0.355188
0.355259
0.370585
0.352107
0.355889
0.368746
0.365827
0.35631
0.347545
0.36505
0.369818
0.364117
0.375193
0.374613
0.372992
0.37024
0.349329
0.361693
0.386474
0.374051
0.386094
0.367723
0.351865
0.375891
0.372061
0.365816
0.374708
0.358478
0.358822
0.36338
0.377495
0.351763
0.37895
0.38243
0.370128
0.361975
0.350383
0.365608
0.364448
0.387099
0.373327
0.349089
0.358665
0.368825
0.377472
0.365143
0.374859
0.353505
0.378473
0.360343
0.35013
0.363263
0.391086
0.372735
0.358872
0.366847
0.362858
0.372861
0.366691
0.354515
0.360754
0.364429
0.366014
0.360909
0.369847
0.342971
0.38069
0.37745
0.351839
0.356839
0.364384
0.371583
0.358997
0.363099
0.363827
0.365235
0.36286
0.383645
0.357767
0.371268
0.361029
0.353658
0.386745
0.385736
0.357674
0.358871
0.364969
0.372628
0.368227
0.357071
0.364697
0.378116
0.375159
0.355413
0.375029
0.392714
0.368149
0.37002
0.362151
0.357485
0.382701
0.378666
0.356758
0.353377
0.380993
0.356392
0.357624
0.368013
0.359551
0.379503
0.386401
0.359705
0.364142
0.353129
0.370457
0.358868
0.370987
0.35874
0.369923
0.366731
0.367019
0.361848
0.369479
0.358339
0.37246
0.361248
0.370076
0.361284
0.358623
0.351399
0.367036
0.387569
0.370002
0.361696
0.350464
0.361684
0.381504
0.364159
0.381033
0.367095
0.359024
0.343992
0.362141
0.37758
0.363984
0.379209
0.361426
0.359533
0.355908
0.355881
0.376722
0.367328
0.377619
0.379995
0.364305
0.36
0.353017
0.363098
0.374575
0.362732
0.348552
0.359446
0.361332
0.35826
0.36053
0.365234
0.386976
0.380205
0.370612
0.347635
0.346421
0.376209
0.371514
0.375475
0.375303