# vtk DataFile Version 2.0
2D Surface
ASCII
DATASET UNSTRUCTURED_GRID
POINTS 2543 float
7.43367e-05 -2.376e-05 0. 
7.434e-05 -2.37602e-05 0. 
7.443e-05 -2.3762e-05 0. 
7.452e-05 -2.37622e-05 0. 
7.461e-05 -2.37642e-05 0. 
7.47e-05 -2.37605e-05 0. 
7.4725e-05 -2.376e-05 0. 
6.99412e-05 -2.367e-05 0. 
7.002e-05 -2.36787e-05 0. 
7.011e-05 -2.36794e-05 0. 
7.02e-05 -2.36793e-05 0. 
7.029e-05 -2.36766e-05 0. 
7.038e-05 -2.36777e-05 0. 
7.047e-05 -2.3679e-05 0. 
7.056e-05 -2.36788e-05 0. 
7.065e-05 -2.36874e-05 0. 
7.074e-05 -2.36872e-05 0. 
7.083e-05 -2.36851e-05 0. 
7.092e-05 -2.36922e-05 0. 
7.101e-05 -2.36907e-05 0. 
7.11e-05 -2.36891e-05 0. 
7.119e-05 -2.36928e-05 0. 
7.128e-05 -2.36828e-05 0. 
7.137e-05 -2.36822e-05 0. 
7.146e-05 -2.36875e-05 0. 
7.155e-05 -2.36947e-05 0. 
7.164e-05 -2.36926e-05 0. 
7.173e-05 -2.36922e-05 0. 
7.182e-05 -2.36982e-05 0. 
7.191e-05 -2.37085e-05 0. 
7.2e-05 -2.37175e-05 0. 
7.209e-05 -2.37227e-05 0. 
7.218e-05 -2.37256e-05 0. 
7.227e-05 -2.37287e-05 0. 
7.236e-05 -2.37328e-05 0. 
7.245e-05 -2.37362e-05 0. 
7.254e-05 -2.37348e-05 0. 
7.263e-05 -2.37336e-05 0. 
7.272e-05 -2.37403e-05 0. 
7.281e-05 -2.3741e-05 0. 
7.29e-05 -2.37422e-05 0. 
7.299e-05 -2.37444e-05 0. 
7.308e-05 -2.3743e-05 0. 
7.317e-05 -2.37433e-05 0. 
7.326e-05 -2.37437e-05 0. 
7.335e-05 -2.37462e-05 0. 
7.344e-05 -2.37426e-05 0. 
7.353e-05 -2.37385e-05 0. 
7.362e-05 -2.37379e-05 0. 
7.371e-05 -2.37356e-05 0. 
7.38e-05 -2.37404e-05 0. 
7.389e-05 -2.37422e-05 0. 
7.398e-05 -2.37493e-05 0. 
7.407e-05 -2.37535e-05 0. 
7.416e-05 -2.37537e-05 0. 
7.425e-05 -2.37559e-05 0. 
7.479e-05 -2.37586e-05 0. 
7.488e-05 -2.37535e-05 0. 
7.497e-05 -2.37544e-05 0. 
7.506e-05 -2.37569e-05 0. 
7.515e-05 -2.3748e-05 0. 
7.524e-05 -2.37505e-05 0. 
7.533e-05 -2.37513e-05 0. 
7.542e-05 -2.37436e-05 0. 
7.551e-05 -2.37413e-05 0. 
7.56e-05 -2.37476e-05 0. 
7.569e-05 -2.37421e-05 0. 
7.578e-05 -2.37496e-05 0. 
7.587e-05 -2.37477e-05 0. 
7.596e-05 -2.3744e-05 0. 
7.605e-05 -2.37439e-05 0. 
7.614e-05 -2.37528e-05 0. 
7.623e-05 -2.37534e-05 0. 
7.632e-05 -2.37541e-05 0. 
7.641e-05 -2.37443e-05 0. 
7.65e-05 -2.3747e-05 0. 
7.659e-05 -2.37541e-05 0. 
7.668e-05 -2.37537e-05 0. 
7.677e-05 -2.37565e-05 0. 
7.686e-05 -2.37544e-05 0. 
7.695e-05 -2.37542e-05 0. 
7.704e-05 -2.37556e-05 0. 
7.713e-05 -2.3753e-05 0. 
7.722e-05 -2.37492e-05 0. 
7.731e-05 -2.37502e-05 0. 
7.74e-05 -2.37527e-05 0. 
7.749e-05 -2.37521e-05 0. 
7.758e-05 -2.3745e-05 0. 
7.767e-05 -2.37363e-05 0. 
7.776e-05 -2.37302e-05 0. 
7.785e-05 -2.37312e-05 0. 
7.794e-05 -2.37332e-05 0. 
7.803e-05 -2.37373e-05 0. 
7.812e-05 -2.37268e-05 0. 
7.821e-05 -2.37207e-05 0. 
7.83e-05 -2.37279e-05 0. 
7.839e-05 -2.37294e-05 0. 
7.848e-05 -2.37268e-05 0. 
7.857e-05 -2.37221e-05 0. 
7.866e-05 -2.37217e-05 0. 
7.875e-05 -2.37178e-05 0. 
7.884e-05 -2.3707e-05 0. 
7.893e-05 -2.36976e-05 0. 
7.902e-05 -2.37057e-05 0. 
7.911e-05 -2.37064e-05 0. 
7.92e-05 -2.37008e-05 0. 
7.929e-05 -2.36943e-05 0. 
7.938e-05 -2.36902e-05 0. 
7.947e-05 -2.36785e-05 0. 
7.956e-05 -2.36726e-05 0. 
7.96092e-05 -2.367e-05 0. 
7.97224e-05 -2.367e-05 0. 
7.974e-05 -2.36705e-05 0. 
7.97664e-05 -2.367e-05 0. 
7.99491e-05 -2.367e-05 0. 
8.001e-05 -2.36723e-05 0. 
8.00989e-05 -2.367e-05 0. 
6.79956e-05 -2.358e-05 0. 
6.804e-05 -2.3582e-05 0. 
6.813e-05 -2.35846e-05 0. 
6.822e-05 -2.3589e-05 0. 
6.831e-05 -2.35932e-05 0. 
6.84e-05 -2.36001e-05 0. 
6.849e-05 -2.36037e-05 0. 
6.858e-05 -2.36102e-05 0. 
6.867e-05 -2.36181e-05 0. 
6.876e-05 -2.36248e-05 0. 
6.885e-05 -2.36249e-05 0. 
6.894e-05 -2.36309e-05 0. 
6.903e-05 -2.36367e-05 0. 
6.912e-05 -2.36377e-05 0. 
6.921e-05 -2.3643e-05 0. 
6.93e-05 -2.36519e-05 0. 
6.939e-05 -2.36491e-05 0. 
6.948e-05 -2.36529e-05 0. 
6.957e-05 -2.36594e-05 0. 
6.966e-05 -2.36595e-05 0. 
6.975e-05 -2.36609e-05 0. 
6.984e-05 -2.36666e-05 0. 
6.993e-05 -2.36688e-05 0. 
7.965e-05 -2.36679e-05 0. 
7.983e-05 -2.36687e-05 0. 
7.992e-05 -2.36689e-05 0. 
8.01e-05 -2.367e-05 0. 
8.019e-05 -2.36618e-05 0. 
8.028e-05 -2.36555e-05 0. 
8.037e-05 -2.3654e-05 0. 
8.046e-05 -2.36442e-05 0. 
8.055e-05 -2.36398e-05 0. 
8.064e-05 -2.36316e-05 0. 
8.073e-05 -2.36329e-05 0. 
8.082e-05 -2.36355e-05 0. 
8.091e-05 -2.36319e-05 0. 
8.1e-05 -2.36297e-05 0. 
8.109e-05 -2.36338e-05 0. 
8.118e-05 -2.36311e-05 0. 
8.127e-05 -2.36296e-05 0. 
8.136e-05 -2.36233e-05 0. 
8.145e-05 -2.36151e-05 0. 
8.154e-05 -2.36122e-05 0. 
8.163e-05 -2.36155e-05 0. 
8.172e-05 -2.36098e-05 0. 
8.181e-05 -2.36011e-05 0. 
8.19e-05 -2.35951e-05 0. 
8.199e-05 -2.35953e-05 0. 
8.208e-05 -2.35913e-05 0. 
8.217e-05 -2.35862e-05 0. 
8.226e-05 -2.35862e-05 0. 
8.23215e-05 -2.358e-05 0. 
6.59028e-05 -2.349e-05 0. 
6.597e-05 -2.34955e-05 0. 
6.606e-05 -2.34989e-05 0. 
6.615e-05 -2.35045e-05 0. 
6.624e-05 -2.35162e-05 0. 
6.633e-05 -2.35159e-05 0. 
6.642e-05 -2.35152e-05 0. 
6.651e-05 -2.35182e-05 0. 
6.66e-05 -2.35359e-05 0. 
6.669e-05 -2.354e-05 0. 
6.678e-05 -2.35411e-05 0. 
6.687e-05 -2.35413e-05 0. 
6.696e-05 -2.35475e-05 0. 
6.705e-05 -2.3563e-05 0. 
6.714e-05 -2.35667e-05 0. 
6.723e-05 -2.35686e-05 0. 
6.732e-05 -2.35693e-05 0. 
6.741e-05 -2.35743e-05 0. 
6.75e-05 -2.35784e-05 0. 
6.759e-05 -2.35763e-05 0. 
6.768e-05 -2.35796e-05 0. 
6.777e-05 -2.35732e-05 0. 
6.786e-05 -2.35771e-05 0. 
6.795e-05 -2.3578e-05 0. 
8.235e-05 -2.35771e-05 0. 
8.244e-05 -2.35705e-05 0. 
8.253e-05 -2.35679e-05 0. 
8.262e-05 -2.35617e-05 0. 
8.271e-05 -2.3553e-05 0. 
8.28e-05 -2.35521e-05 0. 
8.289e-05 -2.35503e-05 0. 
8.298e-05 -2.35477e-05 0. 
8.307e-05 -2.35337e-05 0. 
8.316e-05 -2.35318e-05 0. 
8.325e-05 -2.35295e-05 0. 
8.334e-05 -2.35162e-05 0. 
8.343e-05 -2.35121e-05 0. 
8.352e-05 -2.35055e-05 0. 
8.361e-05 -2.3498e-05 0. 
8.36722e-05 -2.349e-05 0. 
6.4702e-05 -2.34e-05 0. 
6.471e-05 -2.34012e-05 0. 
6.48e-05 -2.34095e-05 0. 
6.489e-05 -2.34199e-05 0. 
6.498e-05 -2.34307e-05 0. 
6.507e-05 -2.34399e-05 0. 
6.516e-05 -2.34442e-05 0. 
6.525e-05 -2.3449e-05 0. 
6.534e-05 -2.34544e-05 0. 
6.543e-05 -2.34574e-05 0. 
6.552e-05 -2.34629e-05 0. 
6.561e-05 -2.34689e-05 0. 
6.57e-05 -2.34765e-05 0. 
6.579e-05 -2.34846e-05 0. 
6.588e-05 -2.34881e-05 0. 
8.37e-05 -2.34864e-05 0. 
8.379e-05 -2.34825e-05 0. 
8.388e-05 -2.34812e-05 0. 
8.397e-05 -2.34786e-05 0. 
8.406e-05 -2.34713e-05 0. 
8.415e-05 -2.34658e-05 0. 
8.424e-05 -2.34624e-05 0. 
8.433e-05 -2.34533e-05 0. 
8.442e-05 -2.34494e-05 0. 
8.451e-05 -2.34452e-05 0. 
8.46e-05 -2.34378e-05 0. 
8.469e-05 -2.34326e-05 0. 
8.478e-05 -2.34264e-05 0. 
8.487e-05 -2.34188e-05 0. 
8.496e-05 -2.34107e-05 0. 
8.505e-05 -2.34042e-05 0. 
8.514e-05 -2.34029e-05 0. 
8.5202e-05 -2.34e-05 0. 
6.36186e-05 -2.331e-05 0. 
6.363e-05 -2.33115e-05 0. 
6.372e-05 -2.33239e-05 0. 
6.381e-05 -2.33375e-05 0. 
6.39e-05 -2.33461e-05 0. 
6.399e-05 -2.33491e-05 0. 
6.408e-05 -2.33502e-05 0. 
6.417e-05 -2.33568e-05 0. 
6.426e-05 -2.33674e-05 0. 
6.435e-05 -2.33753e-05 0. 
6.444e-05 -2.33765e-05 0. 
6.453e-05 -2.33815e-05 0. 
6.462e-05 -2.33879e-05 0. 
8.523e-05 -2.33987e-05 0. 
8.532e-05 -2.33964e-05 0. 
8.541e-05 -2.33889e-05 0. 
8.55e-05 -2.33776e-05 0. 
8.559e-05 -2.33646e-05 0. 
8.568e-05 -2.33568e-05 0. 
8.577e-05 -2.33494e-05 0. 
8.586e-05 -2.33484e-05 0. 
8.595e-05 -2.33437e-05 0. 
8.604e-05 -2.33374e-05 0. 
8.613e-05 -2.33284e-05 0. 
8.622e-05 -2.33224e-05 0. 
8.631e-05 -2.33185e-05 0. 
8.64e-05 -2.33102e-05 0. 
8.64151e-05 -2.331e-05 0. 
6.26423e-05 -2.322e-05 0. 
6.273e-05 -2.32288e-05 0. 
6.282e-05 -2.32396e-05 0. 
6.291e-05 -2.32479e-05 0. 
6.3e-05 -2.32572e-05 0. 
6.309e-05 -2.32615e-05 0. 
6.318e-05 -2.32707e-05 0. 
6.327e-05 -2.32806e-05 0. 
6.336e-05 -2.32917e-05 0. 
6.345e-05 -2.32974e-05 0. 
6.354e-05 -2.32996e-05 0. 
8.649e-05 -2.33089e-05 0. 
8.658e-05 -2.32999e-05 0. 
8.667e-05 -2.32924e-05 0. 
8.676e-05 -2.32901e-05 0. 
8.685e-05 -2.3285e-05 0. 
8.694e-05 -2.32824e-05 0. 
8.703e-05 -2.32703e-05 0. 
8.712e-05 -2.32627e-05 0. 
8.721e-05 -2.32507e-05 0. 
8.73e-05 -2.32422e-05 0. 
8.739e-05 -2.32325e-05 0. 
8.748e-05 -2.32224e-05 0. 
8.75121e-05 -2.322e-05 0. 
6.1686e-05 -2.313e-05 0. 
6.174e-05 -2.31404e-05 0. 
6.183e-05 -2.31479e-05 0. 
6.192e-05 -2.31664e-05 0. 
6.201e-05 -2.31736e-05 0. 
6.21e-05 -2.31885e-05 0. 
6.219e-05 -2.31957e-05 0. 
6.228e-05 -2.32038e-05 0. 
6.237e-05 -2.32068e-05 0. 
6.246e-05 -2.32084e-05 0. 
6.255e-05 -2.32148e-05 0. 
6.264e-05 -2.32198e-05 0. 
8.757e-05 -2.32156e-05 0. 
8.766e-05 -2.32062e-05 0. 
8.775e-05 -2.31972e-05 0. 
8.784e-05 -2.31873e-05 0. 
8.793e-05 -2.31838e-05 0. 
8.802e-05 -2.31752e-05 0. 
8.811e-05 -2.31585e-05 0. 
8.82e-05 -2.31475e-05 0. 
8.82659e-05 -2.313e-05 0. 
6.13651e-05 -2.304e-05 0. 
6.138e-05 -2.30549e-05 0. 
6.147e-05 -2.30897e-05 0. 
6.156e-05 -2.31078e-05 0. 
6.165e-05 -2.3123e-05 0. 
8.829e-05 -2.31236e-05 0. 
8.838e-05 -2.31177e-05 0. 
8.847e-05 -2.30792e-05 0. 
8.856e-05 -2.30992e-05 0. 
8.86215e-05 -2.304e-05 0. 
6.1294e-05 -2.295e-05 0. 
8.865e-05 -2.30084e-05 0. 
8.87008e-05 -2.295e-05 0. 
6.12691e-05 -2.286e-05 0. 
6.129e-05 -2.29355e-05 0. 
8.87247e-05 -2.286e-05 0. 
6.12651e-05 -2.277e-05 0. 
8.87286e-05 -2.277e-05 0. 
6.12644e-05 -2.268e-05 0. 
8.87298e-05 -2.268e-05 0. 
6.1267e-05 -2.259e-05 0. 
8.87322e-05 -2.259e-05 0. 
6.12644e-05 -2.25e-05 0. 
8.87326e-05 -2.25e-05 0. 
6.12644e-05 -2.241e-05 0. 
8.87342e-05 -2.241e-05 0. 
6.12645e-05 -2.232e-05 0. 
8.87343e-05 -2.232e-05 0. 
6.12624e-05 -2.223e-05 0. 
8.87355e-05 -2.223e-05 0. 
6.12636e-05 -2.214e-05 0. 
8.87363e-05 -2.214e-05 0. 
6.12616e-05 -2.205e-05 0. 
8.87381e-05 -2.205e-05 0. 
6.12637e-05 -2.196e-05 0. 
8.87387e-05 -2.196e-05 0. 
6.12606e-05 -2.187e-05 0. 
8.87374e-05 -2.187e-05 0. 
6.12674e-05 -2.178e-05 0. 
8.874e-05 -2.17819e-05 0. 
8.87401e-05 -2.178e-05 0. 
6.12642e-05 -2.169e-05 0. 
8.8743e-05 -2.169e-05 0. 
6.12681e-05 -2.16e-05 0. 
8.87444e-05 -2.16e-05 0. 
6.12584e-05 -2.151e-05 0. 
8.874e-05 -2.15388e-05 0. 
8.87379e-05 -2.151e-05 0. 
6.12627e-05 -2.142e-05 0. 
8.874e-05 -2.14619e-05 0. 
8.87418e-05 -2.142e-05 0. 
6.12545e-05 -2.133e-05 0. 
8.87448e-05 -2.133e-05 0. 
6.12587e-05 -2.124e-05 0. 
[...]
POINT_DATA 2543
SCALARS Coverage0 float 1
LOOKUP_TABLE default
0.270912
0.270912
0.262079
0.250553
0.280044
0.291892
0.291892
0.288021
0.277325
0.268924
0.248803
0.264157
0.268326
0.25072
0.255318
0.226612
0.244678
0.255196
0.267601
0.26008
0.257183
0.254158
0.273763
0.271207
0.264303
0.245952
0.251406
0.266439
0.28402
0.312491
0.283198
0.276003
0.269449
0.297347
0.285553
0.25137
0.250525
0.274773
0.270948
0.268955
0.264982
0.255418
0.245155
0.249193
0.255347
0.273533
0.258855
0.258233
0.270641
0.274126
0.258512
0.270109
0.277188
0.267717
0.255922
0.228636
0.260201
0.269807
0.262216
0.231517
0.25194
0.258141
0.254293
0.272571
0.272438
0.262106
0.249075
0.249371
0.276939
0.291004
0.243942
0.244792
0.261691
0.239863
0.273197
0.278756
0.246094
0.256381
0.262938
0.25118
0.242149
0.23735
0.271116
0.276306
0.27764
0.251914
0.248771
0.26298
0.279027
0.274042
0.281192
0.279977
0.256905
0.243957
0.242742
0.269394
0.260488
0.269405
0.253303
0.265489
0.253081
0.243565
0.258514
0.278067
0.278778
0.26686
0.254836
0.265751
0.268452
0.249088
0.244342
0.266084
0.266084
0.266084
0.255794
0.271536
0.25803
0.260207
0.260207
0.226108
0.243055
0.248752
0.235552
0.229942
0.226903
0.242897
0.262055
0.25676
0.278
0.264232
0.265098
0.259018
0.250837
0.24925
0.265235
0.253709
0.251622
0.258066
0.275904
0.288021
0.244342
0.250927
0.255794
0.25803
0.263883
0.24159
0.275089
0.256192
0.25037
0.281765
0.252229
0.25344
0.24257
0.258549
0.288311
0.250555
0.231867
0.240298
0.2413
0.256966
0.287165
0.296345
0.275027
0.265687
0.279971
0.253833
0.285853
0.275639
0.262438
0.26518
0.266282
0.253806
0.26241
0.253286
0.235094
0.267331
0.269912
0.261603
0.244818
0.220558
0.228162
0.260254
0.25169
0.26219
0.272567
0.26302
0.250913
0.238424
0.228918
0.229073
0.24533
0.278908
0.283571
0.262438
0.275183
0.238863
0.231207
0.237591
0.23798
0.254124
0.239811
0.247588
0.273245
0.264458
0.26132
0.25704
0.249172
0.28285
0.262095
0.226305
0.226305
0.245301
0.273619
0.261559
0.250562
0.240724
0.211349
0.259626
0.283168
0.270698
0.243301
0.216242
0.210902
0.26518
0.262095
0.260419
0.264337
0.246791
0.24918
0.257016
0.270035
0.262714
0.276401
0.269392
0.243013
0.249318
0.23696
0.239339
0.242116
0.237027
0.252073
0.226007
0.258895
0.258895
0.23191
0.225637
0.273261
0.263113
0.23002
0.244862
0.255174
0.247838
0.252779
0.265104
0.237889
0.226007
0.235939
0.255978
0.232646
0.266082
0.240816
0.226681
0.23162
0.267608
0.260287
0.217202
0.223798
0.238759
0.251863
0.251863
0.223464
0.235067
0.247665
0.261411
0.221647
0.219884
0.222692
0.261796
0.253599
0.2701
0.259603
0.260881
0.229024
0.240072
0.271378
0.251919
0.248956
0.264829
0.241694
0.239165
0.251764
0.2436
0.250945
0.250945
0.263772
0.24812
0.249576
0.2278
0.275016
0.259635
0.220017
0.206093
0.242146
0.250106
0.232862
0.223464
0.238797
0.223819
0.251752
0.219872
0.220123
0.248959
0.248369
0.234262
0.250248
0.348808
0.348808
0.271779
0.246229
0.263772
0.250248
0.249935
0.217892
0.269387
0.41035
0.524198
0.41035
0.503272
0.804392
0.524198
0.728498
0.950864
0.90529
0.982782
0.922345
0.471847
0.923404
0.958829
0.922751
0.988852
0.931186
0.989647
0.575937
0.98847
0.914436
0.983937
0.949903
0.98361
0.916076
0.964618
0.992727
0.623517
0.896959
0.923206
0.724215
0.724215
0.975895
0.844262
0.926356
0.999659
0.964937
0.873457
0.873457
0.963459
0.754072
0.754072
0.698953
0.707141
1
0.948175
1
1
0.864932
1
0.897024
1
0.879979
0.654204
0.654204
1
0.854935
0
0.854935
0.830192
0.90097
0
0.953039
1
1
0.959421
1
0.870193
0
0.999595
0
0.94267
0.926502
0.947568
0.706934
1
0.924384
0.962152
0.962152
0.900586
0.962152
0.85357
0
0.730249
0.94058
0.998494
0.772358
0.93722
0.882441
0.936805
0.905202
0.986074
0
0.905202
0.881749
0
1
0.75185
0.923091
0.804423
1
0.923091
0
1
1
1
0
0
0.849427
0
1
1
1
1
1
0.972076
0.998888
0.756302
1
0.756004
0
0.851396
0.83701
1
0.904509
0.84348
0.811174
0.91126
0.881582
0.881582
0
0.878123
0.984482
1
0.805204
1
1
0.945422
0
1
0.847304
1
0.847304
0
1
0
1
0
0.820717
0.820717
1
0
1
1
0
0.906027
0.861223
0.861223
0.927094
0.861223
1
0.907514
0.991212
0.991212
0.880449
0.880449
0.991212
1
0.890602
1
0
0
1
1
1
1
1
0.878913
1
1
0.891894
0.891894
0
0.828081
0
1
0.966006
0.966006
0.84988
0.84988
0.886895
0.966006
0.84988
0.816099
0.783857
0.84865
0.883376
0.883376
0
1
1
1
0.91596
1
0.921143
1
0.921143
1
1
1
1
1
1
0.496043
0.496043
0
1
1
1
1
0
1
0
1
0.904882
0
1
0
1
1
1
1
0
0.955997
0.992899
1
0
0
0.924681
1
1
1
0.924681
1
1
1
1
0.959352
0.988297
0.988297
1
0.714099
0.714099
0.988297
0.935947
0.935947
1
0
0
0
1
1
1
1
0
1
0
1
1
0
1
0
1
0
0.98997
0.948603
0.952484
0
1
1
0.813216
0.813216
0.948603
0
0
1
0.813216
0.970029
0.746646
0.746646
0.755414
0.755414
0
0
0.726834
1
1
0
0
0
0.741933
0.741933
0
1
1
0
1
1
1
1
1
0.786149
0.786149
1
1
1
1
1
0.786149
1
0.819657
1
1
0
0
0
0
0
0
0
0.735771
0.960732
0
0
0
0.735771
0.726549
1
1
0.726549
0.775809
1
1
1
0
0
1
0.956772
0.956772
0
1
0.835173
0.835173
0.956772
0
0
0.76263
0.835173
0
0.81236
0.81236
0
0
0
1
1
0
1
0
0.892643
0.892643
0.806576
1
1
0.892643
1
1
1
0
0
1
0.987292
0.987292
0
0
0
0
0.987292
0
0
0
0
0
0
0
1
0.920516
0.920516
1
1
0.920516
0.945492
1
0.9828
0.9828
0.945492
0
0
0.918005
0.918005
0.9828
0
0.921287
1
0
0
1
0
1
0
1
0
1
1
0.761819
1
1
0.643183
0.643183
1
1
0
0
1
0.707843
0.707843
1
1
0.707843
0
1
1
0
1
1
1
0.834341
1
0.946119
0.834341
1
1
0
0
0.863604
0.863604
1
0
0.863604
0.864034
0.864034
1
0
0
1
0.723401
0.723401
0
0
1
0.723401
0.848986
0.848986
0
0.853709
1
1
0
1
1
1
0
0
1
1
1
0
1
1
0
0
0.89204
0.89204
1
0.676309
0.89204
0.807218
0.807218
0
0.676309
0
0
0.777202
1
1
0.777202
1
0
0.991502
0.991502
0
0.796099
0.991502
0
0
0.853868
0.990326
0.990326
0.835275
0.853868
0.990326
1
0
0
1
0
0
0
0
1
0
0
1
0
1
0
1
1
0.749722
1
0.749722
1
1
1
1
0
0.986429
0.986429
0
1
1
1
0.923258
0.986429
1
1
1
0.96072
0
0
0
0
0.96072
0
1
1
1
1
0
1
1
0
1
0
1
1
0
0.915931
0
0
0
1
0
0
0
0
1
1
1
1
0.990128
1
0.990128
0
0.814117
0.990128
1
1
0
0.814117
0
0
1
1
1
0.897423
1
1
1
1
1
0.897423
0.995972
0.995972
1
1
0.995972
0.441894
0.751252
0
0.774722
1
0.814466
0.814466
1
1
0
0
0
1
0.941992
0
1
1
1
0
0.941992
1
0
0
0.932587
0.932587
1
0
0
0.932587
0.774257
0
1
0.998888
0.998888
0.774257
0
0
0
0
0
0.998888
1
1
1
1
1
1
0
0.920022
0.920022
0
0
1
0.640968
1
0.640968
0.920022
0
0
0
0.675876
0.640968
1
1
1
1
1
0.675876
0
0
1
0
0
1
1
0
1
1
1
0
0
0.87711
1
1
1
1
1
1
0
1
1
1
1
1
0.825033
0.985128
0.985128
1
1
0.897548
0.825033
0.985128
1
1
1
0
0
0
0.747648
1
1
0.747648
0.815817
1
1
1
1
1
0.720225
0.720225
0.976026
0
0.720225
0.976026
0.734425
0
0.734425
0.821485
0
0.965521
0.965521
0.674044
0.674044
0
0.886809
0.965521
0
0
1
0
0.995545
0.995545
1
0
1
0.995545
1
0
0
0
0
0
0.842538
0
0.942636
0.942636
0.82011
0.82011
1
0.942636
1
0
1
1
1
1
1
1
1
1
1
0
0
0.993116
0.993116
0.726668
0.849493
0.993116
0.726668
0.73445
0
0
1
0.849493
1
0
0
0.997798
0.997798
1
0
0
0.997798
0.418126
0.834376
1
1
0
0
1
1
0.810252
0
0.790035
0.790035
1
0
0
0.788341
0.788341
1
0
1
0
0
1
0.983562
0.983562
1
0
1
0.983562
0.797689
0.797689
1
0.670933
1
1
0.940323
0.827057
0.827057
0.670933
1
0.800133
0.739842
0.781257
1
1
0.739842
0.781257
1
1
0
0.938716
0.938716
0.97123
0.97123
1
0.83234
0.83234
0.535551
0.938716
0.97123
0.807477
0.807477
1
0.748232
0
0.986665
0.986665
0.791743
0.765128
0.765128
0.415517
0.986665
0
0.765128
0.639691
0.674255
0.360889
0.381085
0.357493
0.343595
0.372219
0.374932
0.362535
0.379352
0.358027
0.362226
0.377824
0.37997
0.373533
0.375091
0.359654
0.355882
0.366975
0.363284
0.362767
0.365334
0.35762
0.354197
0.36961
0.376965
0.369199
0.359535
0.378006
0.357281
0.368741
0.368829
0.372076
0.358576
0.369738
0.376696
0.391027
0.370005
0.350061
0.33694
0.374159
0.391085
0.37853
0.355257
0.347845
0.369555
0.36474
0.366767
0.366186
0.372195
0.368088
0.354593
0.372811
0.380935
0.366564
0.365483
0.382902
0.361454
0.363102
0.369939
0.362027
0.372245
0.366159
0.371599
0.386669
0.353289
0.35604
0.355123
0.359068
0.349032
0.378952
0.353238
0.35341
0.363826
0.364983
0.362273
0.371027
0.371738
0.365007
0.368215
0.375337
0.350706
0.380592
0.373365
0.367737
0.354607
0.364603
0.353807
0.383446
0.353754
0.350294
0.375808
0.372935
0.372681
0.354467
0.356899
0.391009
0.378118
0.363151
0.384044
0.370821
0.367705
0.350496
0.350098
0.369073
0.381808
0.369891
0.343097
0.351637
0.366202
0.351392
0.351529
0.356753
0.35492
0.374952
0.376054
0.352319
0.36013
0.370808
0.371772
0.371181
0.371418
0.356531
0.379363
0.375559
0.369477
0.376186
0.374368
0.365771
0.358466
0.350563
0.365493
0.375716
0.367758
0.363184
0.363382
0.365655
0.355961
0.360212
0.367887
0.374656
0.399599
0.379343
0.353813
0.364051
0.362606
0.371863
0.36041
0.358591
0.36537
0.395938
0.350419
0.362542
0.382202
0.378367
0.361202
0.377188
0.352185
0.36652
0.364345
0.368302
0.37616
0.378872
0.365191
0.348221
0.370032
0.357895
0.372666
0.36033
0.358738
0.366449
0.368241
0.365497
0.360883
0.352022
0.352748
0.347301
0.357988
0.38173
0.368281
0.371755
0.373004
0.36968
0.348662
0.352485
0.364877
0.358043
0.363035
0.374016
0.351943
0.357939
0.365574
0.377847
0.372698
0.375801
0.376431
0.352738
0.360459
0.365308
0.372467
0.352779
0.354773
0.364557
0.365045
0.38649
0.371529
0.362644
0.370938
0.368416
0.386799
0.363231
0.353897
0.363037
0.359498
0.339991
0.37587
0.387602
0.383824
0.353996
0.337064
0.358118
0.354992
0.357398
0.374248
0.374123
0.362929
0.366833
0.367445
0.371853
0.341334
0.362136
0.374803
0.369883
0.360357
0.357373
0.363783
0.35297
0.37952
0.384041
0.348874
0.372127
0.369339
0.37688
0.368664
0.381039
0.363442
0.364182
0.380121
0.36446
0.369939
0.348648
0.363242
0.354512
0.352939
0.357052
0.368985
0.361809
0.357426
0.367316
0.364876
0.35004
0.369743
0.372654
0.381003
0.361508
0.356187
0.369489
0.381535
0.370964
0.352484
0.358423
0.372686
0.376132
0.356074
0.36759
0.354698
0.366628
0.366879
0.36774
0.37721
0.387174
0.360904
0.356257
0.349219
0.383178
0.368583
0.361464
0.366891
0.369313
0.378248
0.359493
0.3487
0.362693
0.361555
0.370705
0.365429
0.370512
0.361918
0.366305
0.365769
0.367149
0.372522
0.361923
0.3648
0.370109
0.352339
0.354758
0.35584
0.368399
0.366119
0.376579
0.345978
0.356901
0.375324
0.35424
0.376486
0.351547
0.366898
0.359627
0.357389
0.368741
0.380679
0.368665
0.372845
0.357994
0.367597
0.377932
0.363586
0.373243
0.372815
0.357123
0.352034
0.373664
0.363946
0.361503
0.373097
0.367402
0.361604
0.377817
0.378904
0.350396
0.356278
0.354753
0.370843
0.367803
0.376565
0.360883
0.344385
0.362691
0.377757
0.362657
0.367672
0.363317
0.370987
0.376171
0.364964
0.362842
0.364815
0.368608
0.357794
0.371156
0.364816
0.360057
0.370192
0.38207
0.363713
0.353187
0.358192
0.360323
0.37745
0.369654
0.349173
0.369938
0.38511
0.379671
0.356907
0.360782
0.371982
0.373309
0.36442
0.362038
0.359317
0.348447
0.34354
0.363304
0.365629
0.379636
0.375599
0.377775
0.375271
0.383098
0.36682
0.365367
0.362722
0.36913
0.365472
0.373107
0.362772
0.370275
0.354189
0.370124
0.369713
0.373924
0.390433
0.375222
0.372957
0.362487
0.342335
0.357206
0.376579
0.360727
0.356817
0.368364
0.375864
0.385003
0.348375
0.363703
0.372408
0.346283
0.360497
0.385761
0.361876
0.353974
0.351681
0.361947
0.359504
0.369823
0.359405
0.402979
0.375606
0.352523
0.347411
0.37868
0.369825
0.369806
0.356577
0.361726
0.359206
0.377219
0.368418
0.364594
0.394713
0.3713
0.349327
0.357532
0.37371
0.374958
0.366984
0.376384
0.386198
0.367271
0.351817
0.36907
0.365554
0.36179
0.359483
0.375436
0.377957
0.362282
0.348141
0.368166
0.354528
0.383119
0.389001
0.356577
0.341187
0.360903
0.372452
0.349795
0.353881
0.370315
0.343879
0.357397
0.370289
0.353103
0.387701
0.377264
0.37524
0.373764
0.374919
0.355461
0.35251
0.380556
0.382927
0.373353
0.363322
0.355089
0.376514
0.352756
0.358845
0.370539
0.36854
0.362212
0.366716
0.373963
0.351528
0.370591
0.367829
0.370209
0.367785
0.372663
0.351355
0.367115
0.355608
0.344416
0.362498
0.356161
0.364155
0.376482
0.368073
0.359696
0.372091
0.37202
0.380757
0.381253
0.381519
0.344922
0.346767
0.345691
0.368447
0.380032
0.357501
0.383532
0.385565
0.370212
0.376538
0.346825
0.355016
0.371272
0.366938
0.351197
0.363723
0.375975
0.341675
0.364331
0.358433
0.373334
0.358647
0.378657
0.362782
0.369628
0.366922
0.368169
0.368342
0.364012
0.345386
0.360838
0.358768
0.363838
0.366312
0.362583
0.367492
0.342576
0.348936
0.376186
0.385677
0.359438
0.369418
0.356642
0.369635
0.374995
0.355491
0.366592
0.387683
0.376043
0.36756
0.383448
0.370623
0.362216
0.376517
0.358825
0.372258
0.371298
0.367055
0.377283
0.352953
0.359136
0.364578
0.372511
0.367024
0.359918
0.368761
0.359061
0.359816
0.373561
0.375807
0.355358
0.381766
0.381958
0.360999
0.352292
0.369685
0.333727
0.377418
0.384671
0.365856
0.364102
0.374665
0.359305
0.368899
0.355996
0.351557
0.379012
0.371698
0.363077
0.378457
0.350569
0.364687
0.372123
0.354246
0.357425
0.379495
0.379532
0.385841
0.372435
0.360324
0.37804
0.365647
0.365221
0.365546
0.359196
0.375882
0.374843
0.363296
0.371211
0.376262
0.356511
0.357139
0.368336
0.373621
0.377786
0.365877
0.349448
0.348755
0.377803
0.366516
0.36489
0.373016
0.375407
0.358588
0.362892
0.370326
0.365822
0.354378
0.363164
0.36245
0.371938
0.379182
0.368242
0.351977
0.383778
0.377308
0.353216
0.362388
0.376648
0.373866
0.342581
0.364407
0.375713
0.359852
0.367001
0.358745
0.369022
0.380285
0.348987
0.371715
0.383982
0.366752
0.39038
0.401549
0.359263
0.360059
0.377294
0.3691
0.337595
0.353369
0.360078
0.371679
0.36163
0.34399
0.381575
0.369796
0.368938
0.364556
0.359554
0.365539
0.372854
0.356635
0.375141
0.374584
0.370283
0.371261
0.358612
0.365809
0.37962
0.37922
0.353114
0.353376
0.374315
0.357729
0.370074
0.367954
0.386692
0.359725
0.370151
0.360715
0.352268
0.361209
0.361004
0.364591
0.380278
0.366183
0.35065
0.365983
0.360968
0.36175
0.383038
0.368826
0.365406
0.371645
0.36911
0.391208
0.367323
0.367197
0.361862
0.368038
0.403221
0.385472
0.348278
0.358073
0.365299
0.364485
0.359017
0.358875
0.348605
0.347281
0.373407
0.374731
0.359978
0.351719
0.372617
0.361644
0.369211
0.368681
0.354455
0.380038
0.352947
0.343675
0.368489
0.367467
0.366132
0.362765
0.359607
0.35981
0.365804
0.370414
0.368936
0.373289
0.36763
0.347228
0.355194
0.368536
0.379119
0.354093
0.361927
0.368988
0.350673
0.376498
0.370523
0.381112
0.362031
0.360012
0.357226
0.373928
0.375601
0.359185
0.381793
0.357164
0.378847
0.381148
0.37406
0.356679
0.358913
0.37837
0.384693
0.372412
0.354845
0.371781
0.36928
0.363104
0.389827
0.355689
0.353753
0.360816
0.365058
0.368809
0.363973
0.357641
0.382146
0.353791
0.356719
0.37809
0.359513
0.359953
0.362907
0.377096
0.366944
0.369033
0.391328
0.370694
0.385584
0.365011
0.358708
0.360723
0.370589
0.361789
0.395357
0.373722
0.37533
0.37207
0.36591
0.355744
0.351577
0.381688
0.368907
0.370864
0.361342
0.355383
0.366777
0.348219
0.356439
0.37782
0.35606
0.34074
0.362005
0.364747
0.382074
0.391347
0.367713
0.373254
0.364162
0.376158
0.389269
0.352699
0.354855
0.352309
0.373715
0.379108
0.360362
0.363264
0.359565
0.366454
0.355507
0.361939
0.374241
0.374608
0.370426
0.39147
0.37653
0.364286
0.347932
0.366261
0.3601
0.378618
0.374843
0.362811
0.382165
0.396343
0.3619
0.361439
0.385823
0.368663
0.354219
0.37246
0.36201
0.358928
0.369084
0.384713
0.382414
0.366797
0.359418
0.375069
0.368683
0.363405
0.357639
0.353425
0.370848
0.37082
0.359554
0.370321
0.36462
0.360785
0.366117
0.363436
0.359704
0.3526
0.372836
0.381833
0.368601
0.360649
0.387192
0.357899
0.364851
0.356846
0.363773
0.354671
0.365112
0.349736
0.367421
0.380519
0.370942
0.343535
0.356843
0.381713
0.375718
0.362098
0.364091
0.363399
0.355216
0.380953
0.36964
0.388579
0.372772
0.369337
0.356964
0.363869
0.358949
0.369428
0.374225
0.371656
0.384421
0.37409
0.355768
0.355355
0.361162
0.354379
0.384015
0.371126
0.349898
0.374495
0.367471
0.358366
0.368475
0.371511
0.365286
0.384579
0.365833
0.362782
0.359158
0.365657
0.350883
0.353401
0.368001
0.368655
0.360355
0.372813
0.376553
0.357766
0.364964
0.349172
0.372655
0.365333
0.369359
0.351259
0.346039
0.372321
0.36489
0.364225
0.36546
0.345067
0.368476
0.358123
0.360923
0.372216
0.393209
0.359954
0.344244
0.360826
0.352501
0.388556
0.370613
0.374092
0.365561
0.363572
0.359962
0.366243
0.371581
0.365245
0.356785
0.383752
0.378526
0.353132
0.356737
0.360145
0.35295
0.375762
0.385312
0.365687
0.365454
0.375781
0.358956
0.357814
0.361273
0.380357
0.367601
0.365145
0.363591
0.359702
0.376212
0.370745
0.365793
0.361437
0.357516
0.358133
0.374106
0.389091
0.379245
0.354643
0.37279
0.364552
0.36493
0.366131
0.366404
0.366306
0.382576
0.37712
0.368708
0.339989
0.375405
0.369488
0.37476
0.36738
0.36549
0.370898
0.351743
0.362215
0.363904
0.377442
0.373595
0.363979
0.359693
0.374332
0.378282
0.351435
0.363803
0.376419
0.367615
0.358937
0.372117
0.371964
0.376328
0.37091
0.36151
0.371956
0.350591
0.37273
0.358944
0.340976
0.362204
0.370111
0.367908
0.365202
0.355631
0.356557
0.368332
0.358553
0.378038
0.373252
0.378395
0.353849
0.336864
0.364206
0.362538
0.36992
0.378479
0.355438
0.372127
0.37484
0.380483
0.362881
0.357639
0.351392
0.370148
0.361558
0.367295
0.360738
0.382863
0.357703
0.352538
0.37825
0.372633
0.366311
0.350999
0.370691
0.382731
0.37995
0.377716
0.353048
0.361412
0.365559
0.367346
0.377109
0.370309
0.372003
0.362827
0.365936
0.355501
0.373401
0.382032
0.372354
0.355823
0.358722
0.36356
0.3627
0.364975
0.370183
0.3625
0.364728
0.364041
0.380085
0.360354
0.352967
0.343804
0.342634
0.368867
0.372268
0.370878
0.375033
0.378363
0.363637
0.378022
0.368851
0.355845
0.367819
0.36787
0.37394
0.365537
0.358032
0.368839
0.358157
0.35913
0.363316
0.350697
0.342991
0.386718
0.37014
0.3532
0.365158
0.389981
0.368386
0.366205
0.36071
0.361937
0.366825
0.392944
0.346014
0.348266
0.358726
0.354817
0.362246
0.370676
0.367397
0.360135
0.356082
0.360924
0.382838
0.356886
0.356033
0.382706
0.375988
0.370919
0.368791
0.35752
0.35423
0.347725
0.380292
0.387685
0.358523
0.361146
0.379181
0.361412
0.377946
0.359777
0.363233
0.356456
0.358733
0.365135
0.376525
0.38274
0.370253
0.372776
0.366262
0.350219
0.367206
0.361322
0.356023
0.364544
0.377075
0.350613
0.367947
0.365436
0.356075
0.365646
0.375904
0.366478
0.369295
0.363554
0.367763
0.351148
0.369555
0.352158
0.369986
0.363123
0.34023
0.36344
0.366403
0.375931
0.409617
0.355437
0.352771
0.382665
0.373836
0.359696
0.347872
0.359401
0.360705
0.363294
0.384384
0.369305
0.35383
0.352298
0.361005
0.389527
0.375368
0.360776
0.369456
0.369726
0.348037
0.374757
0.35335
0.360853
0.375782
0.371413
0.383422
0.353718
0.371634
0.375709
0.345612
0.377994
0.368141
0.382527
0.371266
0.374263
0.371229
0.384342
0.362551
0.373625
0.360953
0.36277
0.360172
0.357422
0.35764
0.373822
0.358484
0.369938
0.363142
0.366822
0.362077
0.345576
0.360131
0.373598
0.367768
0.385854
0.369744
0.37353
0.37268
0.366887
0.382795
0.350896
0.358212
0.357018
0.358681
0.36727
0.363542
0.356058
0.369273
0.376827
0.376496
0.371598
0.371041
0.360529
0.365501
0.372379
0.341391
0.357433
0.371193
0.39371
0.374851
0.374776
0.365388
0.358967
0.37101
0.367193
0.358337
0.352296
0.344437
0.3627
0.390337
0.390055
0.360211
0.368192
0.368628
0.385219
0.359422
0.3733
0.370675
0.360501
0.364029
0.360513
0.376058
0.372304
0.364418
0.366419
0.366043
0.348592
0.365172
0.353104
0.38327
0.362964
0.352935
0.367923
0.370057
0.360512
0.372025
0.360889
SCALARS Coverage1 float 1
LOOKUP_TABLE default
0.167837
0.167837
0.194803
0.188136
0.181039
0.17908
0.17908
0.168812
0.178111
0.184715
0.176729
0.166418
0.168478
0.168159
0.176674
0.188937
0.180428
0.183465
0.228445
0.208686
0.18141
0.14708
0.148656
0.172974
0.182538
0.188146
0.184316
0.178317
0.160535
0.169873
0.179166
0.162686
0.151849
0.165928
0.201241
0.21482
0.192494
0.175823
0.188141
0.179118
0.1833
0.183499
0.210956
0.206951
0.167764
0.179463
0.192017
0.193525
0.185531
0.186637
0.173911
0.183291
0.199068
0.187832
0.191119
0.188793
0.183299
0.200885
0.182954
0.222924
0.19471
0.150724
0.15187
0.175299
0.174483
0.188562
0.215431
0.1814
0.189681
0.167795
0.1905
0.175298
0.171285
0.181375
0.160706
0.17554
0.161382
0.176992
0.168359
0.199578
0.206644
0.221218
0.180986
0.162144
0.167573
0.179638
0.16243
0.162032
0.158692
0.158979
0.163578
0.173045
0.161851
0.177867