# vtk DataFile Version 2.0
2D Surface
ASCII
DATASET UNSTRUCTURED_GRID
POINTS 3633 float
7.27967e-05 -5.337e-05 0. 
7.281e-05 -5.33713e-05 0. 
7.29e-05 -5.3372e-05 0. 
7.29367e-05 -5.337e-05 0. 
7.44717e-05 -5.337e-05 0. 
7.452e-05 -5.3371e-05 0. 
7.45525e-05 -5.337e-05 0. 
7.46277e-05 -5.337e-05 0. 
7.47e-05 -5.33775e-05 0. 
7.479e-05 -5.33807e-05 0. 
7.488e-05 -5.33783e-05 0. 
7.497e-05 -5.33722e-05 0. 
7.506e-05 -5.33785e-05 0. 
7.515e-05 -5.3388e-05 0. 
7.524e-05 -5.3385e-05 0. 
7.533e-05 -5.33783e-05 0. 
7.542e-05 -5.33807e-05 0. 
7.551e-05 -5.33758e-05 0. 
7.56e-05 -5.3378e-05 0. 
7.569e-05 -5.33726e-05 0. 
7.578e-05 -5.33802e-05 0. 
7.587e-05 -5.3372e-05 0. 
7.596e-05 -5.33793e-05 0. 
7.605e-05 -5.33825e-05 0. 
7.614e-05 -5.33834e-05 0. 
7.623e-05 -5.33829e-05 0. 
7.632e-05 -5.33734e-05 0. 
7.641e-05 -5.33708e-05 0. 
7.65e-05 -5.33703e-05 0. 
7.65044e-05 -5.337e-05 0. 
6.85703e-05 -5.328e-05 0. 
6.858e-05 -5.32805e-05 0. 
6.85952e-05 -5.328e-05 0. 
6.86885e-05 -5.328e-05 0. 
6.876e-05 -5.3289e-05 0. 
6.885e-05 -5.32994e-05 0. 
6.894e-05 -5.33033e-05 0. 
6.903e-05 -5.33112e-05 0. 
6.912e-05 -5.33183e-05 0. 
6.921e-05 -5.33203e-05 0. 
6.93e-05 -5.33206e-05 0. 
6.939e-05 -5.3328e-05 0. 
6.948e-05 -5.33289e-05 0. 
6.957e-05 -5.33267e-05 0. 
6.966e-05 -5.3327e-05 0. 
6.975e-05 -5.33256e-05 0. 
6.984e-05 -5.33297e-05 0. 
6.993e-05 -5.33296e-05 0. 
7.002e-05 -5.33281e-05 0. 
7.011e-05 -5.33249e-05 0. 
7.02e-05 -5.3326e-05 0. 
7.029e-05 -5.33275e-05 0. 
7.038e-05 -5.33291e-05 0. 
7.047e-05 -5.33316e-05 0. 
7.056e-05 -5.33362e-05 0. 
7.065e-05 -5.33422e-05 0. 
7.074e-05 -5.3349e-05 0. 
7.083e-05 -5.33504e-05 0. 
7.092e-05 -5.33474e-05 0. 
7.101e-05 -5.33468e-05 0. 
7.11e-05 -5.33484e-05 0. 
7.119e-05 -5.33426e-05 0. 
7.128e-05 -5.33481e-05 0. 
7.137e-05 -5.33436e-05 0. 
7.146e-05 -5.3354e-05 0. 
7.155e-05 -5.33542e-05 0. 
7.164e-05 -5.33494e-05 0. 
7.173e-05 -5.33509e-05 0. 
7.182e-05 -5.33562e-05 0. 
7.191e-05 -5.33578e-05 0. 
7.2e-05 -5.33585e-05 0. 
7.209e-05 -5.33531e-05 0. 
7.218e-05 -5.33499e-05 0. 
7.227e-05 -5.33492e-05 0. 
7.236e-05 -5.33586e-05 0. 
7.245e-05 -5.33581e-05 0. 
7.254e-05 -5.33582e-05 0. 
7.263e-05 -5.33543e-05 0. 
7.272e-05 -5.33623e-05 0. 
7.299e-05 -5.33671e-05 0. 
7.308e-05 -5.33666e-05 0. 
7.317e-05 -5.3365e-05 0. 
7.326e-05 -5.33659e-05 0. 
7.335e-05 -5.33614e-05 0. 
7.344e-05 -5.33697e-05 0. 
7.353e-05 -5.33667e-05 0. 
7.362e-05 -5.33648e-05 0. 
7.371e-05 -5.33628e-05 0. 
7.38e-05 -5.33667e-05 0. 
7.389e-05 -5.33634e-05 0. 
7.398e-05 -5.33653e-05 0. 
7.407e-05 -5.33679e-05 0. 
7.416e-05 -5.33644e-05 0. 
7.425e-05 -5.33677e-05 0. 
7.434e-05 -5.33591e-05 0. 
7.443e-05 -5.33691e-05 0. 
7.461e-05 -5.33682e-05 0. 
7.659e-05 -5.33636e-05 0. 
7.668e-05 -5.33582e-05 0. 
7.677e-05 -5.33559e-05 0. 
7.686e-05 -5.33587e-05 0. 
7.695e-05 -5.33434e-05 0. 
7.704e-05 -5.33579e-05 0. 
7.713e-05 -5.33538e-05 0. 
7.722e-05 -5.33511e-05 0. 
7.731e-05 -5.33587e-05 0. 
7.74e-05 -5.33612e-05 0. 
7.749e-05 -5.33585e-05 0. 
7.758e-05 -5.33611e-05 0. 
7.767e-05 -5.33635e-05 0. 
7.776e-05 -5.33663e-05 0. 
7.785e-05 -5.33579e-05 0. 
7.794e-05 -5.33585e-05 0. 
7.803e-05 -5.33585e-05 0. 
7.812e-05 -5.33617e-05 0. 
7.821e-05 -5.33692e-05 0. 
7.83e-05 -5.33667e-05 0. 
7.839e-05 -5.33574e-05 0. 
7.848e-05 -5.33527e-05 0. 
7.857e-05 -5.33559e-05 0. 
7.866e-05 -5.33489e-05 0. 
7.875e-05 -5.33394e-05 0. 
7.884e-05 -5.33388e-05 0. 
7.893e-05 -5.3334e-05 0. 
7.902e-05 -5.33381e-05 0. 
7.911e-05 -5.33434e-05 0. 
7.92e-05 -5.33423e-05 0. 
7.929e-05 -5.33394e-05 0. 
7.938e-05 -5.33377e-05 0. 
7.947e-05 -5.33378e-05 0. 
7.956e-05 -5.33313e-05 0. 
7.965e-05 -5.33217e-05 0. 
7.974e-05 -5.33132e-05 0. 
7.983e-05 -5.33149e-05 0. 
7.992e-05 -5.33122e-05 0. 
8.001e-05 -5.33119e-05 0. 
8.01e-05 -5.33077e-05 0. 
8.019e-05 -5.32968e-05 0. 
8.028e-05 -5.3302e-05 0. 
8.037e-05 -5.33008e-05 0. 
8.046e-05 -5.32954e-05 0. 
8.055e-05 -5.3286e-05 0. 
8.06e-05 -5.328e-05 0. 
6.67441e-05 -5.319e-05 0. 
6.678e-05 -5.31933e-05 0. 
6.687e-05 -5.31988e-05 0. 
6.696e-05 -5.32051e-05 0. 
6.705e-05 -5.32066e-05 0. 
6.714e-05 -5.32079e-05 0. 
6.723e-05 -5.32194e-05 0. 
6.732e-05 -5.32234e-05 0. 
6.741e-05 -5.32254e-05 0. 
6.75e-05 -5.32289e-05 0. 
6.759e-05 -5.32296e-05 0. 
6.768e-05 -5.32312e-05 0. 
6.777e-05 -5.32344e-05 0. 
6.786e-05 -5.32397e-05 0. 
6.795e-05 -5.32373e-05 0. 
6.804e-05 -5.32312e-05 0. 
6.813e-05 -5.3248e-05 0. 
6.822e-05 -5.32563e-05 0. 
6.831e-05 -5.32631e-05 0. 
6.84e-05 -5.32678e-05 0. 
6.849e-05 -5.32761e-05 0. 
6.867e-05 -5.32777e-05 0. 
8.064e-05 -5.32752e-05 0. 
8.073e-05 -5.3274e-05 0. 
8.082e-05 -5.32706e-05 0. 
8.091e-05 -5.32603e-05 0. 
8.1e-05 -5.32582e-05 0. 
8.109e-05 -5.32608e-05 0. 
8.118e-05 -5.32565e-05 0. 
8.127e-05 -5.32542e-05 0. 
8.136e-05 -5.32546e-05 0. 
8.145e-05 -5.32463e-05 0. 
8.154e-05 -5.3256e-05 0. 
8.163e-05 -5.32565e-05 0. 
8.172e-05 -5.32564e-05 0. 
8.181e-05 -5.32562e-05 0. 
8.19e-05 -5.32529e-05 0. 
8.199e-05 -5.32477e-05 0. 
8.208e-05 -5.32448e-05 0. 
8.217e-05 -5.32406e-05 0. 
8.226e-05 -5.32391e-05 0. 
8.235e-05 -5.32327e-05 0. 
8.244e-05 -5.32189e-05 0. 
8.253e-05 -5.32253e-05 0. 
8.262e-05 -5.32274e-05 0. 
8.271e-05 -5.32252e-05 0. 
8.28e-05 -5.32255e-05 0. 
8.289e-05 -5.32185e-05 0. 
8.298e-05 -5.32177e-05 0. 
8.307e-05 -5.32191e-05 0. 
8.316e-05 -5.3212e-05 0. 
8.325e-05 -5.32176e-05 0. 
8.334e-05 -5.32198e-05 0. 
8.343e-05 -5.32186e-05 0. 
8.352e-05 -5.32185e-05 0. 
8.361e-05 -5.32129e-05 0. 
8.37e-05 -5.32095e-05 0. 
8.379e-05 -5.31998e-05 0. 
8.388e-05 -5.31914e-05 0. 
8.397e-05 -5.31907e-05 0. 
8.39789e-05 -5.319e-05 0. 
6.49995e-05 -5.31e-05 0. 
6.507e-05 -5.31079e-05 0. 
6.516e-05 -5.31103e-05 0. 
6.525e-05 -5.31082e-05 0. 
6.534e-05 -5.31134e-05 0. 
6.543e-05 -5.31213e-05 0. 
6.552e-05 -5.31265e-05 0. 
6.561e-05 -5.31321e-05 0. 
6.57e-05 -5.31411e-05 0. 
6.579e-05 -5.3145e-05 0. 
6.588e-05 -5.31468e-05 0. 
6.597e-05 -5.31488e-05 0. 
6.606e-05 -5.31477e-05 0. 
6.615e-05 -5.31455e-05 0. 
6.624e-05 -5.31554e-05 0. 
6.633e-05 -5.31575e-05 0. 
6.642e-05 -5.31655e-05 0. 
6.651e-05 -5.31736e-05 0. 
6.66e-05 -5.3176e-05 0. 
6.669e-05 -5.3185e-05 0. 
8.406e-05 -5.31839e-05 0. 
8.415e-05 -5.31815e-05 0. 
8.424e-05 -5.31721e-05 0. 
8.433e-05 -5.3163e-05 0. 
8.442e-05 -5.31578e-05 0. 
8.451e-05 -5.31555e-05 0. 
8.46e-05 -5.31485e-05 0. 
8.469e-05 -5.31414e-05 0. 
8.478e-05 -5.31366e-05 0. 
8.487e-05 -5.31245e-05 0. 
8.496e-05 -5.31224e-05 0. 
8.505e-05 -5.31222e-05 0. 
8.514e-05 -5.31186e-05 0. 
8.523e-05 -5.31128e-05 0. 
8.532e-05 -5.31047e-05 0. 
8.541e-05 -5.31062e-05 0. 
8.55e-05 -5.31013e-05 0. 
8.5513e-05 -5.31e-05 0. 
6.39068e-05 -5.301e-05 0. 
6.399e-05 -5.30114e-05 0. 
6.408e-05 -5.30231e-05 0. 
6.417e-05 -5.30321e-05 0. 
6.426e-05 -5.30369e-05 0. 
6.435e-05 -5.30389e-05 0. 
6.444e-05 -5.30475e-05 0. 
6.453e-05 -5.30604e-05 0. 
6.462e-05 -5.30639e-05 0. 
6.471e-05 -5.30721e-05 0. 
6.48e-05 -5.30803e-05 0. 
6.489e-05 -5.30865e-05 0. 
6.498e-05 -5.30978e-05 0. 
8.559e-05 -5.30921e-05 0. 
8.568e-05 -5.30847e-05 0. 
8.577e-05 -5.30792e-05 0. 
8.586e-05 -5.30718e-05 0. 
8.595e-05 -5.30624e-05 0. 
8.604e-05 -5.3053e-05 0. 
8.613e-05 -5.30434e-05 0. 
8.622e-05 -5.30362e-05 0. 
8.631e-05 -5.30281e-05 0. 
8.64e-05 -5.30176e-05 0. 
8.64543e-05 -5.301e-05 0. 
6.30802e-05 -5.292e-05 0. 
6.309e-05 -5.29222e-05 0. 
6.318e-05 -5.29362e-05 0. 
6.327e-05 -5.29472e-05 0. 
6.336e-05 -5.29592e-05 0. 
6.345e-05 -5.29724e-05 0. 
6.354e-05 -5.29823e-05 0. 
6.363e-05 -5.29898e-05 0. 
6.372e-05 -5.29965e-05 0. 
6.381e-05 -5.30078e-05 0. 
6.39e-05 -5.30099e-05 0. 
8.649e-05 -5.3005e-05 0. 
8.658e-05 -5.29947e-05 0. 
8.667e-05 -5.29813e-05 0. 
8.676e-05 -5.29653e-05 0. 
8.685e-05 -5.29474e-05 0. 
8.694e-05 -5.29321e-05 0. 
8.70214e-05 -5.292e-05 0. 
6.26282e-05 -5.283e-05 0. 
6.264e-05 -5.28328e-05 0. 
6.273e-05 -5.28538e-05 0. 
6.282e-05 -5.28674e-05 0. 
6.291e-05 -5.28856e-05 0. 
6.3e-05 -5.29022e-05 0. 
8.703e-05 -5.29187e-05 0. 
8.712e-05 -5.29e-05 0. 
8.721e-05 -5.28837e-05 0. 
8.73e-05 -5.28637e-05 0. 
8.739e-05 -5.28366e-05 0. 
8.74105e-05 -5.283e-05 0. 
6.23325e-05 -5.274e-05 0. 
6.237e-05 -5.27583e-05 0. 
6.246e-05 -5.27844e-05 0. 
6.255e-05 -5.28116e-05 0. 
8.748e-05 -5.28075e-05 0. 
8.757e-05 -5.27822e-05 0. 
8.766e-05 -5.27443e-05 0. 
8.76758e-05 -5.274e-05 0. 
6.21532e-05 -5.265e-05 0. 
6.219e-05 -5.26868e-05 0. 
6.228e-05 -5.27144e-05 0. 
8.775e-05 -5.27196e-05 0. 
8.78344e-05 -5.265e-05 0. 
6.20735e-05 -5.256e-05 0. 
6.21e-05 -5.25899e-05 0. 
8.784e-05 -5.26443e-05 0. 
8.79085e-05 -5.256e-05 0. 
6.2047e-05 -5.247e-05 0. 
8.793e-05 -5.24854e-05 0. 
8.79344e-05 -5.247e-05 0. 
6.20428e-05 -5.238e-05 0. 
8.79387e-05 -5.238e-05 0. 
6.20431e-05 -5.229e-05 0. 
8.79415e-05 -5.229e-05 0. 
6.20404e-05 -5.22e-05 0. 
8.79421e-05 -5.22e-05 0. 
6.20393e-05 -5.211e-05 0. 
8.79426e-05 -5.211e-05 0. 
6.20386e-05 -5.202e-05 0. 
8.7942e-05 -5.202e-05 0. 
6.20404e-05 -5.193e-05 0. 
8.79429e-05 -5.193e-05 0. 
6.20386e-05 -5.184e-05 0. 
8.79422e-05 -5.184e-05 0. 
6.20389e-05 -5.175e-05 0. 
8.79416e-05 -5.175e-05 0. 
6.20378e-05 -5.166e-05 0. 
8.79432e-05 -5.166e-05 0. 
6.20362e-05 -5.157e-05 0. 
8.79453e-05 -5.157e-05 0. 
6.20345e-05 -5.148e-05 0. 
8.79469e-05 -5.148e-05 0. 
6.20271e-05 -5.139e-05 0. 
8.79478e-05 -5.139e-05 0. 
6.20244e-05 -5.13e-05 0. 
8.79482e-05 -5.13e-05 0. 
6.20273e-05 -5.121e-05 0. 
8.79469e-05 -5.121e-05 0. 
6.20252e-05 -5.112e-05 0. 
8.79493e-05 -5.112e-05 0. 
6.20274e-05 -5.103e-05 0. 
8.79463e-05 -5.103e-05 0. 
6.20253e-05 -5.094e-05 0. 
8.79502e-05 -5.094e-05 0. 
6.20256e-05 -5.085e-05 0. 
8.79493e-05 -5.085e-05 0. 
6.20222e-05 -5.076e-05 0. 
8.795e-05 -5.076e-05 0. 
6.20183e-05 -5.067e-05 0. 
8.79497e-05 -5.067e-05 0. 
6.20173e-05 -5.058e-05 0. 
8.79502e-05 -5.058e-05 0. 
6.2018e-05 -5.049e-05 0. 
8.79521e-05 -5.049e-05 0. 
6.20171e-05 -5.04e-05 0. 
8.7952e-05 -5.04e-05 0. 
6.20188e-05 -5.031e-05 0. 
8.79564e-05 -5.031e-05 0. 
6.20149e-05 -5.022e-05 0. 
8.79554e-05 -5.022e-05 0. 
6.20149e-05 -5.013e-05 0. 
8.7952e-05 -5.013e-05 0. 
6.20179e-05 -5.004e-05 0. 
8.79535e-05 -5.004e-05 0. 
[...]
POINT_DATA 3633
SCALARS Coverage0 float 1
LOOKUP_TABLE default
0.191275
0.191275
0.177703
0.177703
0.177583
0.167836
0.167836
0.1616
0.166599
0.153232
0.153368
0.170591
0.165197
0.172856
0.168111
0.171677
0.177882
0.164608
0.154243
0.148501
0.177419
0.201555
0.187988
0.196259
0.167418
0.164666
0.140357
0.160731
0.168703
0.168703
0.171082
0.171082
0.171082
0.176551
0.192258
0.171869
0.190243
0.180845
0.143438
0.160943
0.152586
0.156426
0.190038
0.18711
0.159016
0.142357
0.159316
0.184922
0.169538
0.149033
0.153722
0.179811
0.181801
0.176781
0.158896
0.164505
0.178268
0.186259
0.195151
0.209629
0.181247
0.174327
0.174342
0.16217
0.183357
0.174743
0.175707
0.180426
0.142855
0.149998
0.144225
0.155515
0.173633
0.160235
0.165137
0.181233
0.145326
0.150462
0.192174
0.170171
0.188642
0.176562
0.150502
0.143248
0.168248
0.172058
0.157535
0.1799
0.16849
0.162785
0.163885
0.165724
0.179432
0.177547
0.175302
0.177583
0.1616
0.167216
0.171147
0.162022
0.163473
0.169882
0.175646
0.164184
0.187647
0.200203
0.189659
0.176332
0.173841
0.166022
0.166805
0.175136
0.172056
0.167124
0.181421
0.173123
0.168854
0.17974
0.175753
0.157739
0.169742
0.163055
0.188024
0.167422
0.16426
0.154808
0.192081
0.184381
0.168284
0.164245
0.161587
0.160824
0.178346
0.174743
0.193419
0.163417
0.147876
0.164689
0.169634
0.156756
0.173685
0.184454
0.18118
0.156302
0.156302
0.170548
0.188802
0.182358
0.169179
0.166908
0.167771
0.172064
0.147515
0.136929
0.159189
0.144428
0.145514
0.171282
0.191893
0.184006
0.184228
0.176077
0.193059
0.153853
0.176551
0.18118
0.155137
0.167077
0.160573
0.148685
0.164012
0.189334
0.178806
0.15757
0.172569
0.16323
0.166487
0.184289
0.170104
0.177822
0.165986
0.14336
0.163133
0.166069
0.165695
0.176739
0.174332
0.163974
0.156986
0.149639
0.148774
0.156438
0.147329
0.163753
0.177121
0.167398
0.154246
0.161155
0.180739
0.183116
0.178861
0.154449
0.156371
0.156371
0.165231
0.163875
0.126443
0.114708
0.155488
0.156165
0.136265
0.140481
0.16131
0.18209
0.174383
0.167576
0.147171
0.147912
0.165352
0.201685
0.195031
0.176705
0.170779
0.17926
0.184129
0.200182
0.194521
0.190193
0.183468
0.188524
0.169269
0.153498
0.150992
0.164337
0.153476
0.162536
0.145066
0.149567
0.164229
0.171413
0.195998
0.195998
0.164835
0.150091
0.150475
0.158516
0.159486
0.171479
0.173763
0.149866
0.141418
0.150043
0.170737
0.18467
0.165231
0.189069
0.172017
0.158471
0.151729
0.151404
0.17309
0.163364
0.151896
0.16231
0.161317
0.169752
0.175119
0.175119
0.178299
0.196933
0.178575
0.162957
0.15828
0.162611
0.176225
0.17704
0.164835
0.169752
0.165845
0.179386
0.176508
0.165785
0.163504
0.191004
0.192317
0.192317
0.192068
0.185655
0.148672
0.171586
0.191004
0.184121
0.185329
0.186153
0.198235
0.198235
0.225132
0.225132
0.178112
0.182414
0.223832
0.216553
0.230351
0.230351
0.293127
0.293127
0.252977
0.242658
0.305165
0.384431
0.384431
0.305165
0.378792
0.699074
0.632346
0.632346
0.915201
0.903438
0.922586
0.920263
0.864575
0.643477
0.842789
0.800797
0.922886
0.97377
0.980041
0.883513
0.954643
0.950006
0.745397
0.886187
0.888885
0.874801
0.911988
0.74285
0.85397
0.881458
0.790886
0.926633
0.897363
0.969734
0.935453
0.894158
0.8109
0.948072
0.799648
0.967107
0.843321
0.765672
0.848737
0.874554
0.825704
0.870789
0.912918
0.622384
0.839099
0.801699
0.63457
0.991041
0.897419
0.941748
0.925432
0.874621
0.911472
0.588527
0.993962
0.674788
0.974472
0.984558
0.949572
0.835715
0.819855
0.793594
0.830981
0.717325
0.919058
0.924852
0.986552
0.959573
0.994584
0.997291
0.96664
0.892242
0.950926
0.724859
0.95862
0.95862
0.893028
0.95862
0.881615
0.81007
0.943308
0.687677
0.959286
0.943308
0.747605
0.881625
0.8628
0.845457
0.845457
0.839481
0.913535
0.767777
0.977974
0.890271
0.900826
0.977974
0.828172
0.99276
0.921218
0.967606
0.967606
0.968045
0.93227
0.967606
0.924198
0
0.756428
0.810379
0.886064
0.609781
0.939794
0.609781
0.835747
0.843413
0.869255
0.835747
0.724077
0.936715
0.825828
0.912339
0.870787
0.929549
0.861874
0.956879
0.883008
0.768708
0.97399
0.708872
0.99078
0.774946
0.776032
0.754741
0.961948
0.849382
0.925812
0.975244
0.812681
0.878314
0.596288
0.847374
0
0.926421
0.908201
0.954899
0.945983
0.866868
0.905761
0.873176
0.973775
0.947147
1
0.914929
0.970827
0.903186
0.616403
0.760497
0
0.724777
0.87612
0.99792
0.875304
0.775391
0.977204
0.966363
0.760676
0.984388
0.862321
0.912381
0.967316
0.985487
0.833669
0.869731
0.874067
0.770146
0.95524
0.872345
0.95485
0.951021
0.924497
0.966308
0.914932
0.879394
1
0.889353
1
0.903172
0.923761
0.871244
0.974409
0.85226
0.712046
0.866636
0.697113
0
0.818096
0.818096
0.994238
0.868689
0.8702
0.791955
0.791955
0.817972
0.791955
0.904214
0.823318
0.727646
0.810166
0.848801
0.848801
0.765698
0.848801
0.83234
0.86464
0.680225
0.895778
0.791756
0.983472
0.727004
0.99881
0.55844
0.779756
1
0.754718
1
0.778748
1
0.744776
1
0.733771
0
0
1
0
0
0.601718
0
0.675371
0.871488
0.989578
0.989578
0.90903
0.989578
0.949845
0.854748
0.949845
0.948265
1
1
1
1
1
0.674135
0.674135
1
0.878561
0.878561
1
0.99182
0.802216
0.99182
0.995366
0.739278
0.796314
0.409445
0.801862
0
0.752087
0.752087
0.548524
0.736721
0.996988
0.871031
0.100386
1
0.879797
0.98598
0.98598
0.915408
0.98598
0.824637
0.871556
0
1
1
0
1
0
1
0.841875
0
0.676395
1
0.784165
1
0.725694
0.725694
0
0
0
0.85435
0
0
0.85435
0.823457
0.766859
0.766859
0
1
0.83889
0.879528
0.879528
0.946414
0.897814
0.879528
0.954328
1
0.993761
1
1
0.967982
0.93451
1
0.959667
1
0.940369
1
0
0.875792
0.920007
0.920007
0.791912
0.920007
0.732864
0.841993
0
1
0
0
1
1
0
0.592149
0.811844
1
0
0.983906
0.323355
0
0.659003
0.927238
0.855016
0.810674
0.762128
1
0.967741
1
0.825239
0.279021
0.8031
0.812311
0.828168
0.833051
0.62377
0.900692
0.680489
0
0.900692
0
1
1
1
0.879185
0
0
0
0
0
0
1
0.748406
1
0
0.797074
0
0.791632
1
1
0
1
0.65817
0.583048
0
0.663767
0
0.759209
0
0
0
0
0.552941
0.676298
0
0.819825
0
0.922316
0.927098
0.7734
0.755104
0.772563
0.905425
0
0.914311
0.87135
0.473726
0.622628
0.569481
0.622628
0
0.925137
1
1
1
0.640288
0.966081
0
0
0.808557
1
1
0.717469
0.79863
0.568461
0
0
0.740339
0
1
1
0.740339
0.86419
0
0.72308
0
0
0.890689
0.875181
0.858214
0
0.875181
0.858214
0.807164
1
1
1
1
1
1
0
1
1
1
1
0
1
1
1
0.744614
1
1
1
0
1
1
1
1
1
1
1
1
1
0
0
0
0
1
1
1
1
1
0
0
1
1
0
1
0.946227
0.90678
0.90678
0
0
0.878265
0.90678
0
0
0
1
0
0.839508
1
0
0
0.867425
0
0
0.738914
1
1
0.884845
1
0.893536
0.83941
0.893536
1
0.88764
0
1
0.892755
0.898349
0.943226
0.943226
0.805334
0
0
0
0
0
0
0
0
0.950354
0
0
0
0
1
0
0.959946
1
0
0.914549
0.914549
1
1
1
0
1
0
0.956464
1
1
0.850529
0.850529
0
0.850529
0.826178
1
0.826178
0.837989
0
0.860101
0
1
1
1
1
0.724157
1
1
0
0.816556
0.889019
0
0
0.816556
0.906824
0
0
0.906824
0
0
0
1
0.834411
0
1
0.834411
1
1
1
0
0.782133
1
1
1
1
0.782133
1
1
0.847671
0.847671
0
0.847671
0.908336
0
0.885773
0
0
0.885773
0
0
1
1
0.814229
0.814229
0
1
1
0.814229
0
0
1
1
0.9698
0.9698
0
0.73822
0.73822
0.9698
0
0
0.73822
0.749784
0
0.664123
0.749784
0.770487
0.660824
0.770487
1
0
0
0.660824
1
0
0
0
0.908375
0.908375
1
1
0
0.908375
1
1
0
1
1
0
0
1
1
0
1
0
0
0
1
1
1
0
1
1
1
1
1
1
0.874148
1
0.874148
1
0
1
0
1
0
1
0
1
0
0
0.961839
0.961839
0
1
0.961839
1
0
0
1
1
0
0
1
0
0
1
0
1
1
0.983866
0.983866
1
0.799386
0.799386
0.983866
1
0.81699
0
1
1
0.81699
1
1
1
1
1
1
1
1
1
1
0.960505
0.960505
0.872972
1
1
1
1
0.960505
0.872972
0.7994
1
1
0.811581
1
0.811581
0.741132
1
1
0
0
0
1
0
0
0
0
0
0.938253
0.938253
0
1
1
0.785006
0.938253
0.923353
0.923353
0.992132
1
0.831925
0.785006
0.923353
0.992132
1
1
1
1
0
1
1
1
1
0
0
1
0
1
0
0
1
0
0.752391
0
0.752391
0.88419
0
0.838097
0
0
0.850487
0
0.850487
0
0
1
1
0.860202
1
1
1
0
0.860202
0
1
0
0.872344
1
1
0
0
1
1
0
1
1
1
1
0
1
0
0.832025
1
0
0.832025
0.831664
0
1
1
1
1
1
1
0
0
1
1
0.862113
0.862113
0
1
0.792329
0.792329
0.862113
1
1
0.780099
1
0.935573
0
0
0
1
0
1
1
0
0
0
1
1
1
0
1
0.844542
0
0
0.875943
0.875943
0
0
0
0.99262
0.99262
0.875943
0
0
1
1
1
0.82162
0.99262
0
1
1
0.82162
0
0.996199
1
0.996199
1
0
0
1
0
1
0
1
0
0
0
0.863683
0
0
0
0
0
0
0
0
0
0
0
0
0.944263
0.944263
0
0
0
0.944263
0
1
1
1
0
1
0
0.880527
0.880527
1
0.824858
0.823683
0.880527
1
0
1
0.824858
0.945769
0.945769
0
0
0.980626
0.980626
0.945769
0.516794
0
0.871528
0.871528
0.980626
0
1
1
1
1
0
0
0.423949
0.423949
0
0
0
0
0.423949
1
1
1
1
0.902439
0.902439
1
1
1
1
1
1
0.902439
1
1
1
0
1
0
0.999108
0.999108
0
0
0.999108
1
1
0
0
0
0.869748
0.869748
0
0
0
0.869748
0.910687
0
0
0
0
1
0.910687
1
1
1
1
0
1
0.918356
0.918356
1
0.72287
0.72287
0.918356
1
1
1
1
1
1
1
0.859327
0.859327
0
0.962115
0.859327
1
1
0
1
1
0.962115
1
0
1
1
0.988941
0.988941
1
1
0.817494
0.988941
1
0.909172
0
0.886745
0
0
0.886745
1
0
0
0
0
0
0
1
0
1
0.813655
0.813655
1
0.946747
0.946747
0.567741
1
1
1
0
0.946747
0.567741
1
1
0
1
1
0
1
0
0
0
0
0
0.984365
0.984365
0
0
1
0
0.984365
0
1
0
0
0
1
0
0
0
1
1
1
0
1
0.925855
0.925855
0
0.783774
0.783774
0.925855
0.981036
0.981036
0
0
0.856287
0.856287
0.981036
0.735201
0.770131
0.870877
0.856287
0.770131
0
0
1
0
0
0
1
0
0
1
1
0.754117
0.754117
1
1
0.910199
1
1
0.910199
0
0
0
1
0
1
0
0
0
1
0
1
0
1
1
0
1
0
0
0
1
0
1
1
0
0
0
1
0
0.82808
0
0.739504
0.739504
0
0
1
0
0
0
0.751232
1
1
0
1
1
1
1
1
1
0.884285
0.884285
0
1
0
0.884285
0.977345
0.695416
0.695416
0
1
1
1
0
0
0.984066
0.984066
0
1
0.900675
0.984066
0.537113
0.537113
0.879748
0.900675
0
0.824122
1
1
1
0
1
0
0.824122
1
0.985589
0.985589
1
0.985589
0.763233
1
0.922866
1
0.922866
1
1
1
1
1
1
1
1
1
0
1
1
1
1
1
1
0
1
0
1
0.87
0.87
0
0.87
1
0
1
1
1
1
0
0
0
0
0.99697
0.99697
0
1
0
0
0.980759
0.99047
0.99697
1
1
1
0.980759
1
1
1
1
0
0.971631
0.971631
0.839084
1
0.791679
0.971631
0.839084
1
1
0
0
1
0
0
1
1
1
1
0
1
0
1
1
1
1
0
1
0.827654
0.827654
1
1
0.788123
0.788123
0.827654
0
1
1
0.835447
0.835447
0.788123
0
0
1
0.835447
0.749413
0.965317
0.965317
0.851526
0.749413
0.965317
0
0
0
0.921395
1
1
0
0
0
0.921395
1
0
1
1
1
0
1
0
1
1
1
0.975444
0.975444
0
0
1
1
1
1
0.975444
1
1
0.965727
1
0
0
0
0
0.965727
1
0
0
0.957693
0.957693
0.940484
1
0
0
0.957693
0.940484
0.861909
1
1
0.886711
0.886711
1
1
1
0
0
1
0.988829
0.988829
0
1
1
0.988829
0
0
1
0.958971
0.958971
0
1
0.791167
0.958971
0
0
0
1
1
1
0
1
0
1
0.916036
0.916036
0.786387
1
1
0
0.916036
1
1
1
0
0
1
1
0.984192
0.984192
0
0
0
0
1
0.984192
0
0
0
0
1
1
0
0
0
1
0.986963
0.986963
1
1
0.986963
0.961943
1
0
0.961943
0
0
0
0.940188
0.940188
0
0.755458
0.755458
0.940188
1
0
1
1
0.822604
0.822604
1
0
1
1
0.822604
1
0
1
1
0
1
1
0.807544
1
1
0.747533
0.747533
1
1
0
0
1
0.992086
0.992086
1
1
0.992086
0
1
1
0
1
1
1
0.971686
0.971686
1
0.741213
0.741213
0.971686
1
1
0.770021
0
0
0
1
1
0.793771
0.793771
1
1
0
0
1
0
0
1
0
1
0.837951
0
0.91014
0.91014
1
1
1
0
1
1
1
0
0
1
1
1
0
1
1
0
0
0.94444
0.94444
0
1
0.730525
0.94444
0.760634
0
0.730525
0.760634
0
0
0
0.58553
1
1
0.58553
1
0
0.815354
0.815354
0
0.858097
0.815354
0
0
0.837418
0
0
0.899242
0.899242
0
1
0
0
1
0
1
0
0
1
0
0
1
0
0
0
1
1
0.964175
0.964175
0
1
0.964175
0.687514
0.886103
0
1
1
1
0
0.912502
0.912502
0.954277
0.954277
0
0
1
1
1
0
0.912502
0.954277
1
1
1
0
0
0
0
0
0
0
1
1
1
1
0
1
1
0
1
0
1
1
0
0.734913
0
0
0
0.720454
0.720454
0
0
0
1
1
0.809028
0
0.981144
0.981144
0
0.80633
0.809028
0
0.981144
1
1
0
0
0
1
1
1
0.745902
1
1
1
1
1
1
0
0
1
1
0
0.97922
0
0.830349
1
0.830843
1
1
0.830843
0
0
0
0
0.917521
0.917521
0
1
1
1
0
0.917521
1
0
0
0.800187
0.800187
0
1
0
0
0.800187
0.835452
0
0
0.997364
0.997364
0.835452
1
0
0
0
1
1
0.997364
1
1
1
1
1
1
0
1
1
0
0
1
1
0
0
0
0.835195
1
1
1
1
1
0.835195
0
0
1
0
0
1
1
0
1
1
0.826625
0.826625
0
1
0
0.826625
0
0.760864
0.743648
1
1
0
1
1
0
1
1
1
1
1
0.851574
0.802431
0.802431
1
1
0.793128
0.851574
0.802431
0.933746
0.933746
1
0
0
0
0.933746
0.524569
1
1
0.732297
1
1
0.809082
1
1
0.809082
1
1
0
1
0
0.98741
0.989349
1
0
0.950478
0.950478
0.98741
0.669972
0.669972
0
0.804273
0.950478
0
0
1
0
0.888152
0.888152
0
0
1
0.888152
0
1
0
0
0
0
0
1
0
0.743164
0.743164
0.847006
1
0.743164
0.796094
1
1
1
0.796094
0
1
1
0.769947
0.769947
0.81958
0
0.9411
0.9411
0.769947
0.81958
1
0.924789
0.9411
0
0
0
0
1
0.924789
0
0
0
0
0.755398
0
0
0.836532
0.836532
1
1
0
0
1
1
0.992483
0.992483
0
0
0.992483
0.741044
0.741044
1
0
0
1
1
0
0
0
0
1
0.808078
0.808078
0
1
0.808078
0.844927
1
0.990646
0.960816
0.960816
0.860858
0.736972
0.736972
0.990646
0.960816
0.789456
0.789456
0.61526
0.847516
0.847516
1
1
0.61526
1
1
0
0.95939
0.95939
0.935314
0.935314
1
0.854355
0.854355
0.646035
0.95939
0.935314
0.849153
0.849153
1
0.835505
0
0.895786
0.895786
0.722885
0.713963
0.713963
0.378766
0.895786
0
0.713963
0.579016
0.696224
0.377099
0.380799
0.372035
0.351221
0.365239
0.386243
0.364722
0.367783
0.394518
0.374628
0.354838
0.349779
0.347277
0.36379
0.387448
0.382531
0.367201
0.357938
0.376234
0.35896
0.343438
0.3596
0.359157
0.36227
0.367689
0.374564
0.365468
0.362444
0.381769
0.369191
0.379079
0.371373
0.363797
0.374286
0.364522
0.377807
0.344234
0.367453
0.362672
0.388468
0.364926
0.355807
0.349382
0.382044
0.35956
0.349281
0.352833
0.360003
0.364733
0.3631
0.359847
0.385551
0.359216
0.367206
0.358645
0.368894
0.370616
0.364641
0.368655
0.353129
0.352513
0.345478
0.36816
0.389263
0.364575
0.363464
0.367273
0.338317
0.377034
0.372025
0.379017
0.38614
0.37389
0.356079
0.349945
0.359377
0.372761
0.349739
0.373103
0.377215
0.369702
0.361919
0.359465
0.361933
0.387073
0.372912
0.376449
0.347207
0.3668
0.365781
0.353158
0.376828
0.357943
0.369661
0.368326
0.367546
0.366946
0.350413
0.38486
0.350426
0.370868
0.373806
0.347627
0.360213
0.374571
0.37725
0.362671
0.357928
0.376318
0.347816
0.354679
0.351087
0.378167
0.369462
0.378784
0.355021
0.371133
0.371881
0.377701
0.361022
0.364326
0.367113
0.372941
0.371415
0.351916
0.350568
0.356324
0.378077
0.35562
0.369337
0.378944
0.348173
0.370966
0.349587
0.360336
0.373134
0.376231
0.364325
0.354516
0.354503
0.367296
0.350187
0.356789
0.374041
0.378618
0.357204
0.383196
0.381116
0.363795
0.36648
0.343451
0.373688
0.376467
0.389778
0.376294
0.37463
0.373041
0.352678
0.363903
0.372595
0.370665
0.36162
0.374923
0.377581
0.371999
0.381114
0.370132
0.365951
0.371815
0.378836
0.358567
0.359328
0.384291
0.364021
0.379777
0.361824
0.374506
0.361237
0.356268
0.379638
0.384484
0.362708
0.35499
0.35262
0.360426
0.354634
0.368189
0.376095
0.341001
0.373254
0.3542
0.371483
0.381783
0.364792
0.360256
0.373559
0.360548
0.359581
0.369563
0.368673
0.370147
0.352691
0.372924
0.363904
0.357104
0.364303
0.368917
0.371365
0.365139
0.370159
0.362746
0.369894
0.36681
0.368006
0.362855
0.355272
0.370853
0.392917
0.354181
0.367475
0.362105
0.349231
0.354496
0.381194
0.382876
0.37442
0.353881
0.357414
0.35437
0.387767
0.377374
0.365663
0.368308
0.383073
0.370786
0.3646
0.362871
0.362587
0.367614
0.345709
0.379639
0.365691
0.381804
0.35106
0.347988
0.370839
0.36455
0.372269
0.357833
0.345388
0.377422
0.38238
0.369418
0.364881
0.369436
0.352583
0.370518
0.354012
0.364689
0.357595
0.37182
0.365696
0.350059
0.351422
0.377748
0.377809
0.354689
0.345701
0.3734
0.364227
0.366739
0.376453
0.357384
0.341679
0.361758
0.382038
0.360823
0.373697
0.374926
0.362326
0.355167
0.353871
0.361802
0.374487
0.373708
0.355248
0.36916
0.357961
0.357127
0.384413
0.369689
0.368689
0.369674
0.387052
0.354702
0.373032
0.354282
0.350747
0.365296
0.368293
0.357148
0.3767
0.375954
0.378606
0.386295
0.360891
0.370991
0.346415
0.343503
0.347668
0.376969
0.365123
0.37341
0.362492
0.352751
0.357164
0.374149
0.369435
0.371
0.365507
0.353172
0.377872
0.370342
0.364844
0.364465
0.374514
0.352984
0.326919
0.365338
0.350937
0.362175
0.362927
0.38402
0.362452
0.37879
0.384673
0.356998
0.351861
0.371634
0.352557
0.374164
0.367653
0.361626
0.359791
0.366469
0.385199
0.374716
0.376681
0.354761
0.370377
0.364137
0.355169
0.374682
0.36294
0.357148
0.355712
0.378875
0.374611
0.358918
0.343134
0.357387
0.368872
0.378858
0.36847
0.358829
0.358858
0.386849
0.36225
0.346153
0.355262
0.382384
0.369189
0.371666
0.36465
0.358876
0.346227
0.352367
0.371245
0.361033
0.37049
0.374512
0.347251
0.363916
0.342793
0.353493
0.372873
0.368875
0.354426
0.364679
0.37738
0.366158
0.36696
0.378793
0.36681
0.357413
0.371012
0.374875
0.355901
0.371153
0.372554
0.350517
0.362893
0.354237
0.364373
0.363092
0.380941
0.366777
0.361396
0.365105
0.35814
0.377326
0.365241
0.356514
0.369983
0.363137
0.360898
0.369421
0.353601
0.352178
0.371143
0.375601
0.370698
0.357058
0.349925
0.370966
0.366235
0.375042
0.385073
0.359216
0.370234
0.382517
0.365459
0.372001
0.372233
0.366872
0.362207
0.362199
0.356459
0.35636
0.374911
0.382
0.367539
0.358393
0.362303
0.352079
0.37601
0.380233
0.366909
0.351037
0.349396
0.381173
0.371785
0.357581
0.364602
0.357832
0.362539
0.358683
0.382229
0.374042
0.378935
0.376118
0.345824
0.346955
0.377728
0.379179
0.358443
0.360709
0.366082
0.363443
0.36988
0.357471
0.397003
0.357146
0.365669
0.361617
0.358212
0.360374
0.350072
0.365742
0.367914
0.37348
0.364587
0.374097
0.372865
0.362548
0.355685
0.374111
0.367332
0.366495
0.367727
0.366508
0.363775
0.36933
0.365213
0.368729
0.360682
0.365962
0.369622
0.358161
0.35849
0.379882
0.374397
0.362181
0.354335
0.355788
0.361545
0.362136
0.354562
0.367302
0.352319
0.354468
0.364703
0.383305
0.364106
0.380771
0.367567
0.350545
0.358605
0.362381
0.370167
0.397368
0.382267
0.356121
0.344023
0.375898
0.380516
0.351056
0.34633
0.358426
0.383946
0.383873
0.360773
0.366792
0.327793
0.357143
0.385535
0.382055
0.37674
0.362659
0.36105
0.365066
0.360704
0.383078
0.37752
0.372216
0.364566
0.361142
0.349987
0.38021
0.392525
0.373904
0.35689
0.345296
0.373355
0.385103
0.35705
0.363448
0.378494
0.372416
0.351325
0.376473
0.364909
0.365379
0.369465
0.368807
0.371433
0.3645
0.362436
0.378815
0.364518
0.369939
0.365336
0.345964
0.365858
0.364315
0.373172
0.370889
0.358567
0.352534
0.373247
0.368023
0.371513
0.362823
0.366961
0.358858
0.376155
0.373578
0.357983
0.364356
0.367917
0.362819
0.362607
0.367544
0.390163
0.377437
0.361418
0.360508
0.360948
0.375894
0.368224
0.356426
0.355785
0.358925
0.363294
0.362739
0.366541
0.371675
0.38045
0.364001
0.362541
0.366459
0.384271
0.365945
0.369632
0.359787
0.361102
0.368661
0.374171
0.349616
0.353408
0.366136
0.366746
0.360811
0.351366
0.363993
0.36332
0.370758
0.374554
0.358045
0.36963
0.369139
0.374457
0.371774
0.360235
0.350983
0.352097
0.357727
0.37894
0.374326
0.354839
0.371906
0.371558
0.354721
0.374243
0.365749
0.356067
0.369678
0.360796
0.385956
0.366257
0.352285
0.367757
0.354838
0.367307
0.369459
0.36712
0.358955
0.363423
0.369893
0.356853
0.35372
0.354696
0.371051
0.362127
0.376442
0.381913
0.383316
0.368385
0.341061
0.375207
0.385358
0.363538
0.351904
0.374472
0.372769
0.363529
0.379488
0.358607
0.370841
0.345274
0.352403
0.394036
0.359085
0.366877
0.37774
0.372201
0.36857
0.363035
0.366586
0.352404
0.365734
0.355054
0.348009
0.384974
0.373748
0.365807
0.361184
0.35305
0.388301
0.372718
0.362734
0.36249
0.380041
0.356593
0.35443
0.36681
0.358019
0.358784
0.379407
0.356389
0.350687
0.345932
0.368965
0.378272
0.38162
0.364538
0.349658
0.362882
0.361564
0.367897
0.356391
0.370678
0.372304
0.374597
0.366674
0.370339
0.368777
0.377
0.355653
0.36605
0.375022
0.363009
0.365249
0.369668
0.35794
0.357963
0.362075
0.376529
0.376771
0.356451
0.363694
0.35667
0.356088
0.380427
0.365711
0.375617
0.378869
0.371644
0.360499
0.342618
0.352133
0.372326
0.366325
0.385056
0.353592
0.346826
0.370098
0.368366
0.380026
0.375325
0.367588
0.36441
0.361969
0.36726
0.370564
0.363142
0.358096
0.378204
0.358536
0.366289
0.363276
0.367357
0.356011
0.37689
0.36021
0.357473
0.361615
0.369851
0.364134
0.361258
0.360377
0.354244
0.378368
0.360492
0.384215
0.362582
0.356321
0.372941
0.372657
0.373467
0.359036
0.363382
0.372271
0.370126
0.371903
0.37432
0.358924
0.351322
0.370144
0.355752
0.358594
0.382414
0.36665
0.381642
0.36357
0.367705
0.355534
0.372281
0.358041
0.365743
0.372976
0.375807
0.365259
0.350521
0.377472
0.374703
0.356665
0.364647
0.364551
0.390952
0.370542
0.357884
0.379317
0.351865
0.36693
0.348604
0.366041
0.365989
0.367249
0.358898
0.385465
0.365189
0.364644
0.380934
0.360996
0.347136
0.371392
0.368187
0.367747
0.368358
0.361088
0.370868
0.376442
0.363241
0.355
0.370615
0.371714
0.371223
0.347207
0.345096
0.361482
0.383138
0.37827
0.360988
0.37735