# vtk DataFile Version 2.0
2D Surface
ASCII
DATASET UNSTRUCTURED_GRID
POINTS 2937 float
7.28678e-05 -3.474e-05 0. 
7.29e-05 -3.47444e-05 0. 
7.299e-05 -3.47419e-05 0. 
7.308e-05 -3.47442e-05 0. 
7.317e-05 -3.4743e-05 0. 
7.326e-05 -3.47431e-05 0. 
7.33003e-05 -3.474e-05 0. 
7.0294e-05 -3.465e-05 0. 
7.038e-05 -3.46582e-05 0. 
7.047e-05 -3.46651e-05 0. 
7.056e-05 -3.46676e-05 0. 
7.065e-05 -3.46639e-05 0. 
7.074e-05 -3.4664e-05 0. 
7.083e-05 -3.4672e-05 0. 
7.092e-05 -3.468e-05 0. 
7.101e-05 -3.46867e-05 0. 
7.11e-05 -3.46835e-05 0. 
7.119e-05 -3.46829e-05 0. 
7.128e-05 -3.46852e-05 0. 
7.137e-05 -3.46896e-05 0. 
7.146e-05 -3.46936e-05 0. 
7.155e-05 -3.46955e-05 0. 
7.164e-05 -3.47e-05 0. 
7.173e-05 -3.4706e-05 0. 
7.182e-05 -3.47143e-05 0. 
7.191e-05 -3.47171e-05 0. 
7.2e-05 -3.4718e-05 0. 
7.209e-05 -3.47164e-05 0. 
7.218e-05 -3.47198e-05 0. 
7.227e-05 -3.47299e-05 0. 
7.236e-05 -3.47314e-05 0. 
7.245e-05 -3.47341e-05 0. 
7.254e-05 -3.47363e-05 0. 
7.263e-05 -3.47336e-05 0. 
7.272e-05 -3.47283e-05 0. 
7.281e-05 -3.47321e-05 0. 
7.335e-05 -3.47361e-05 0. 
7.344e-05 -3.47343e-05 0. 
7.353e-05 -3.47338e-05 0. 
7.362e-05 -3.47332e-05 0. 
7.371e-05 -3.4736e-05 0. 
7.38e-05 -3.47322e-05 0. 
7.389e-05 -3.47291e-05 0. 
7.398e-05 -3.47213e-05 0. 
7.407e-05 -3.47232e-05 0. 
7.416e-05 -3.47229e-05 0. 
7.425e-05 -3.47246e-05 0. 
7.434e-05 -3.47228e-05 0. 
7.443e-05 -3.4725e-05 0. 
7.452e-05 -3.47309e-05 0. 
7.461e-05 -3.47304e-05 0. 
7.47e-05 -3.47336e-05 0. 
7.479e-05 -3.47325e-05 0. 
7.488e-05 -3.47259e-05 0. 
7.497e-05 -3.47313e-05 0. 
7.506e-05 -3.47288e-05 0. 
7.515e-05 -3.47291e-05 0. 
7.524e-05 -3.47329e-05 0. 
7.533e-05 -3.473e-05 0. 
7.542e-05 -3.47331e-05 0. 
7.551e-05 -3.47322e-05 0. 
7.56e-05 -3.47172e-05 0. 
7.569e-05 -3.47153e-05 0. 
7.578e-05 -3.4721e-05 0. 
7.587e-05 -3.4718e-05 0. 
7.596e-05 -3.47266e-05 0. 
7.605e-05 -3.47286e-05 0. 
7.614e-05 -3.47276e-05 0. 
7.623e-05 -3.47227e-05 0. 
7.632e-05 -3.47246e-05 0. 
7.641e-05 -3.47272e-05 0. 
7.65e-05 -3.47235e-05 0. 
7.659e-05 -3.47225e-05 0. 
7.668e-05 -3.47128e-05 0. 
7.677e-05 -3.47193e-05 0. 
7.686e-05 -3.47195e-05 0. 
7.695e-05 -3.47207e-05 0. 
7.704e-05 -3.47159e-05 0. 
7.713e-05 -3.47132e-05 0. 
7.722e-05 -3.47169e-05 0. 
7.731e-05 -3.47201e-05 0. 
7.74e-05 -3.47144e-05 0. 
7.749e-05 -3.47104e-05 0. 
7.758e-05 -3.47104e-05 0. 
7.767e-05 -3.4707e-05 0. 
7.776e-05 -3.46971e-05 0. 
7.785e-05 -3.46975e-05 0. 
7.794e-05 -3.47042e-05 0. 
7.803e-05 -3.47057e-05 0. 
7.812e-05 -3.47091e-05 0. 
7.821e-05 -3.47063e-05 0. 
7.83e-05 -3.46991e-05 0. 
7.839e-05 -3.47012e-05 0. 
7.848e-05 -3.46996e-05 0. 
7.857e-05 -3.46997e-05 0. 
7.866e-05 -3.46948e-05 0. 
7.875e-05 -3.46992e-05 0. 
7.884e-05 -3.47024e-05 0. 
7.893e-05 -3.47003e-05 0. 
7.902e-05 -3.4697e-05 0. 
7.911e-05 -3.47019e-05 0. 
7.92e-05 -3.47004e-05 0. 
7.929e-05 -3.4707e-05 0. 
7.938e-05 -3.47048e-05 0. 
7.947e-05 -3.4703e-05 0. 
7.956e-05 -3.46989e-05 0. 
7.965e-05 -3.46916e-05 0. 
7.974e-05 -3.46889e-05 0. 
7.983e-05 -3.46803e-05 0. 
7.992e-05 -3.46705e-05 0. 
8.001e-05 -3.46677e-05 0. 
8.01e-05 -3.46659e-05 0. 
8.019e-05 -3.46666e-05 0. 
8.028e-05 -3.46568e-05 0. 
8.037e-05 -3.46525e-05 0. 
8.04054e-05 -3.465e-05 0. 
6.78696e-05 -3.456e-05 0. 
6.795e-05 -3.45601e-05 0. 
6.79565e-05 -3.456e-05 0. 
6.81881e-05 -3.456e-05 0. 
6.822e-05 -3.45623e-05 0. 
6.831e-05 -3.4563e-05 0. 
6.84e-05 -3.456e-05 0. 
6.849e-05 -3.45713e-05 0. 
6.858e-05 -3.45745e-05 0. 
6.867e-05 -3.45808e-05 0. 
6.876e-05 -3.45877e-05 0. 
6.885e-05 -3.45953e-05 0. 
6.894e-05 -3.45979e-05 0. 
6.903e-05 -3.46023e-05 0. 
6.912e-05 -3.46043e-05 0. 
6.921e-05 -3.46037e-05 0. 
6.93e-05 -3.46064e-05 0. 
6.939e-05 -3.46089e-05 0. 
6.948e-05 -3.46206e-05 0. 
6.957e-05 -3.4622e-05 0. 
6.966e-05 -3.46242e-05 0. 
6.975e-05 -3.46227e-05 0. 
6.984e-05 -3.46265e-05 0. 
6.993e-05 -3.46282e-05 0. 
7.002e-05 -3.46399e-05 0. 
7.011e-05 -3.46454e-05 0. 
7.02e-05 -3.46491e-05 0. 
7.029e-05 -3.46496e-05 0. 
8.046e-05 -3.46462e-05 0. 
8.055e-05 -3.46468e-05 0. 
8.064e-05 -3.46466e-05 0. 
8.073e-05 -3.46391e-05 0. 
8.082e-05 -3.46319e-05 0. 
8.091e-05 -3.46263e-05 0. 
8.1e-05 -3.46137e-05 0. 
8.109e-05 -3.46126e-05 0. 
8.118e-05 -3.46044e-05 0. 
8.127e-05 -3.45952e-05 0. 
8.136e-05 -3.45945e-05 0. 
8.145e-05 -3.45904e-05 0. 
8.154e-05 -3.4586e-05 0. 
8.163e-05 -3.45775e-05 0. 
8.172e-05 -3.45693e-05 0. 
8.181e-05 -3.45729e-05 0. 
8.19e-05 -3.4568e-05 0. 
8.199e-05 -3.4564e-05 0. 
8.20495e-05 -3.456e-05 0. 
6.63231e-05 -3.447e-05 0. 
6.633e-05 -3.44706e-05 0. 
6.642e-05 -3.44846e-05 0. 
6.651e-05 -3.44903e-05 0. 
6.66e-05 -3.44933e-05 0. 
6.669e-05 -3.44917e-05 0. 
6.678e-05 -3.44987e-05 0. 
6.687e-05 -3.4498e-05 0. 
6.696e-05 -3.45014e-05 0. 
6.705e-05 -3.45088e-05 0. 
6.714e-05 -3.4511e-05 0. 
6.723e-05 -3.45159e-05 0. 
6.732e-05 -3.4527e-05 0. 
6.741e-05 -3.4533e-05 0. 
6.75e-05 -3.4536e-05 0. 
6.759e-05 -3.45388e-05 0. 
6.768e-05 -3.45393e-05 0. 
6.777e-05 -3.45435e-05 0. 
6.786e-05 -3.456e-05 0. 
6.804e-05 -3.45593e-05 0. 
6.813e-05 -3.45559e-05 0. 
8.208e-05 -3.4558e-05 0. 
8.217e-05 -3.45502e-05 0. 
8.226e-05 -3.45498e-05 0. 
8.235e-05 -3.45493e-05 0. 
8.244e-05 -3.45448e-05 0. 
8.253e-05 -3.4542e-05 0. 
8.262e-05 -3.45299e-05 0. 
8.271e-05 -3.45241e-05 0. 
8.28e-05 -3.45185e-05 0. 
8.289e-05 -3.45198e-05 0. 
8.298e-05 -3.45109e-05 0. 
8.307e-05 -3.45009e-05 0. 
8.316e-05 -3.4498e-05 0. 
8.325e-05 -3.44855e-05 0. 
8.334e-05 -3.44852e-05 0. 
8.343e-05 -3.4483e-05 0. 
8.352e-05 -3.44815e-05 0. 
8.361e-05 -3.44796e-05 0. 
8.37e-05 -3.44713e-05 0. 
8.37139e-05 -3.447e-05 0. 
6.4878e-05 -3.438e-05 0. 
6.489e-05 -3.43811e-05 0. 
6.49592e-05 -3.438e-05 0. 
6.50784e-05 -3.438e-05 0. 
6.516e-05 -3.43886e-05 0. 
6.525e-05 -3.43952e-05 0. 
6.534e-05 -3.44054e-05 0. 
6.543e-05 -3.44178e-05 0. 
6.552e-05 -3.44261e-05 0. 
6.561e-05 -3.4428e-05 0. 
6.57e-05 -3.44324e-05 0. 
6.579e-05 -3.44357e-05 0. 
6.588e-05 -3.44432e-05 0. 
6.597e-05 -3.44487e-05 0. 
6.606e-05 -3.4457e-05 0. 
6.615e-05 -3.4463e-05 0. 
6.624e-05 -3.44632e-05 0. 
8.379e-05 -3.44629e-05 0. 
8.388e-05 -3.44626e-05 0. 
8.397e-05 -3.44589e-05 0. 
8.406e-05 -3.44616e-05 0. 
8.415e-05 -3.44508e-05 0. 
8.424e-05 -3.44468e-05 0. 
8.433e-05 -3.44398e-05 0. 
8.442e-05 -3.44315e-05 0. 
8.451e-05 -3.44255e-05 0. 
8.46e-05 -3.44217e-05 0. 
8.469e-05 -3.44154e-05 0. 
8.478e-05 -3.44028e-05 0. 
8.487e-05 -3.43928e-05 0. 
8.496e-05 -3.43883e-05 0. 
8.505e-05 -3.43863e-05 0. 
8.514e-05 -3.43852e-05 0. 
8.52167e-05 -3.438e-05 0. 
6.35123e-05 -3.429e-05 0. 
6.354e-05 -3.42926e-05 0. 
6.363e-05 -3.42964e-05 0. 
6.372e-05 -3.43014e-05 0. 
6.381e-05 -3.43044e-05 0. 
6.39e-05 -3.43064e-05 0. 
6.399e-05 -3.43125e-05 0. 
6.408e-05 -3.43139e-05 0. 
6.417e-05 -3.43198e-05 0. 
6.426e-05 -3.43276e-05 0. 
6.435e-05 -3.43354e-05 0. 
6.444e-05 -3.4343e-05 0. 
6.453e-05 -3.43531e-05 0. 
6.462e-05 -3.43585e-05 0. 
6.471e-05 -3.43678e-05 0. 
6.48e-05 -3.43726e-05 0. 
6.498e-05 -3.43797e-05 0. 
6.507e-05 -3.43791e-05 0. 
8.523e-05 -3.43791e-05 0. 
8.532e-05 -3.43714e-05 0. 
8.541e-05 -3.43624e-05 0. 
8.55e-05 -3.43605e-05 0. 
8.559e-05 -3.43584e-05 0. 
8.568e-05 -3.435e-05 0. 
8.577e-05 -3.43448e-05 0. 
8.586e-05 -3.43394e-05 0. 
8.595e-05 -3.43283e-05 0. 
8.604e-05 -3.43197e-05 0. 
8.613e-05 -3.43111e-05 0. 
8.622e-05 -3.42998e-05 0. 
8.6305e-05 -3.429e-05 0. 
6.24696e-05 -3.42e-05 0. 
6.255e-05 -3.42071e-05 0. 
6.264e-05 -3.42158e-05 0. 
6.273e-05 -3.42276e-05 0. 
6.282e-05 -3.42391e-05 0. 
6.291e-05 -3.42433e-05 0. 
6.3e-05 -3.42467e-05 0. 
6.309e-05 -3.42518e-05 0. 
6.318e-05 -3.42664e-05 0. 
6.327e-05 -3.4274e-05 0. 
6.336e-05 -3.42801e-05 0. 
6.345e-05 -3.42843e-05 0. 
8.631e-05 -3.42894e-05 0. 
8.64e-05 -3.42795e-05 0. 
8.649e-05 -3.42737e-05 0. 
8.658e-05 -3.42684e-05 0. 
8.667e-05 -3.4259e-05 0. 
8.676e-05 -3.42543e-05 0. 
8.685e-05 -3.42441e-05 0. 
8.694e-05 -3.42288e-05 0. 
8.703e-05 -3.42146e-05 0. 
8.712e-05 -3.42016e-05 0. 
8.71416e-05 -3.42e-05 0. 
6.19629e-05 -3.411e-05 0. 
6.201e-05 -3.41212e-05 0. 
6.21e-05 -3.41437e-05 0. 
6.219e-05 -3.41631e-05 0. 
6.228e-05 -3.41757e-05 0. 
6.237e-05 -3.41875e-05 0. 
6.246e-05 -3.41992e-05 0. 
8.721e-05 -3.41949e-05 0. 
8.73e-05 -3.41923e-05 0. 
8.739e-05 -3.4183e-05 0. 
8.748e-05 -3.41758e-05 0. 
8.757e-05 -3.41655e-05 0. 
8.766e-05 -3.41583e-05 0. 
8.775e-05 -3.41418e-05 0. 
8.784e-05 -3.41313e-05 0. 
8.79056e-05 -3.411e-05 0. 
6.17321e-05 -3.402e-05 0. 
6.174e-05 -3.40279e-05 0. 
6.183e-05 -3.40747e-05 0. 
6.192e-05 -3.40998e-05 0. 
8.793e-05 -3.41021e-05 0. 
8.802e-05 -3.40979e-05 0. 
8.811e-05 -3.40542e-05 0. 
8.82e-05 -3.407e-05 0. 
8.82501e-05 -3.402e-05 0. 
6.16607e-05 -3.393e-05 0. 
8.829e-05 -3.39758e-05 0. 
8.83313e-05 -3.393e-05 0. 
6.16315e-05 -3.384e-05 0. 
6.165e-05 -3.3897e-05 0. 
8.83552e-05 -3.384e-05 0. 
6.16254e-05 -3.375e-05 0. 
8.83572e-05 -3.375e-05 0. 
6.16219e-05 -3.366e-05 0. 
8.83614e-05 -3.366e-05 0. 
6.16215e-05 -3.357e-05 0. 
8.8363e-05 -3.357e-05 0. 
6.16199e-05 -3.348e-05 0. 
8.83636e-05 -3.348e-05 0. 
6.16204e-05 -3.339e-05 0. 
8.83647e-05 -3.339e-05 0. 
6.16191e-05 -3.33e-05 0. 
8.83684e-05 -3.33e-05 0. 
6.16183e-05 -3.321e-05 0. 
8.83689e-05 -3.321e-05 0. 
6.16189e-05 -3.312e-05 0. 
8.83717e-05 -3.312e-05 0. 
6.16186e-05 -3.303e-05 0. 
8.83718e-05 -3.303e-05 0. 
6.16171e-05 -3.294e-05 0. 
8.83723e-05 -3.294e-05 0. 
6.16201e-05 -3.285e-05 0. 
8.83739e-05 -3.285e-05 0. 
6.16201e-05 -3.276e-05 0. 
8.837e-05 -3.276e-05 0. 
6.16214e-05 -3.267e-05 0. 
8.83751e-05 -3.267e-05 0. 
6.16219e-05 -3.258e-05 0. 
8.8376e-05 -3.258e-05 0. 
6.16177e-05 -3.249e-05 0. 
8.83765e-05 -3.249e-05 0. 
6.16202e-05 -3.24e-05 0. 
8.83735e-05 -3.24e-05 0. 
6.16203e-05 -3.231e-05 0. 
8.83741e-05 -3.231e-05 0. 
6.16211e-05 -3.222e-05 0. 
8.83792e-05 -3.222e-05 0. 
6.16189e-05 -3.213e-05 0. 
8.838e-05 -3.21841e-05 0. 
8.83811e-05 -3.213e-05 0. 
6.16241e-05 -3.204e-05 0. 
8.838e-05 -3.20478e-05 0. 
8.83799e-05 -3.204e-05 0. 
6.16204e-05 -3.195e-05 0. 
8.83794e-05 -3.195e-05 0. 
6.16166e-05 -3.186e-05 0. 
8.838e-05 -3.19235e-05 0. 
8.83815e-05 -3.186e-05 0. 
[...]
POINT_DATA 2937
SCALARS Coverage0 float 1
LOOKUP_TABLE default
0.200669
0.200669
0.214347
0.214022
0.212467
0.209595
0.209595
0.205589
0.213077
0.193549
0.200116
0.204297
0.218274
0.217807
0.214631
0.201875
0.210192
0.225141
0.217113
0.227361
0.201075
0.212137
0.218375
0.20454
0.203228
0.214276
0.190063
0.246209
0.229706
0.217712
0.216796
0.231858
0.200581
0.206248
0.215603
0.216832
0.227148
0.210165
0.212978
0.212136
0.207776
0.221836
0.23086
0.221762
0.220717
0.219136
0.229661
0.232505
0.223219
0.20361
0.193111
0.226213
0.217258
0.228366
0.202043
0.194626
0.18547
0.18486
0.227053
0.209509
0.241835
0.235006
0.230057
0.239496
0.225433
0.228696
0.228405
0.222213
0.22997
0.231798
0.212849
0.195398
0.196904
0.206569
0.228459
0.224156
0.219551
0.240016
0.240429
0.231101
0.224414
0.193406
0.198538
0.199646
0.204812
0.226388
0.205347
0.201659
0.210362
0.237363
0.214067
0.193079
0.198148
0.211335
0.232756
0.23504
0.226982
0.217737
0.23946
0.241231
0.234505
0.240983
0.243646
0.220435
0.200049
0.197496
0.202565
0.229289
0.231069
0.226496
0.224903
0.21521
0.207358
0.210192
0.210137
0.210137
0.215666
0.230403
0.230403
0.231655
0.231655
0.193338
0.198682
0.204707
0.223
0.198454
0.212244
0.224337
0.202107
0.206897
0.21321
0.219219
0.195584
0.21419
0.201981
0.221932
0.219323
0.227829
0.223607
0.246683
0.238517
0.215194
0.216891
0.205589
0.216918
0.207475
0.209434
0.202641
0.197384
0.224995
0.237429
0.206782
0.225644
0.221478
0.21355
0.214053
0.242522
0.227843
0.212677
0.215731
0.238869
0.228593
0.206322
0.192337
0.192337
0.206669
0.194197
0.195688
0.215687
0.210833
0.246565
0.253591
0.225079
0.24039
0.232627
0.196511
0.204262
0.217484
0.203925
0.234605
0.22975
0.215666
0.226759
0.241758
0.206322
0.215017
0.194335
0.190671
0.218926
0.208935
0.192522
0.211738
0.203187
0.223335
0.235249
0.237817
0.209991
0.224202
0.221557
0.204922
0.192344
0.198534
0.217253
0.217253
0.19909
0.19909
0.217515
0.212957
0.207302
0.215368
0.195547
0.203332
0.235719
0.218643
0.238939
0.212087
0.223059
0.199157
0.200389
0.205569
0.224352
0.203799
0.202479
0.194417
0.18543
0.188691
0.193675
0.206493
0.196865
0.196972
0.210834
0.202377
0.200229
0.202644
0.199483
0.187022
0.195938
0.237861
0.214948
0.214948
0.217845
0.204826
0.202136
0.193246
0.21243
0.195014
0.186232
0.200124
0.213845
0.215242
0.237329
0.220867
0.200473
0.209578
0.217515
0.212957
0.237861
0.224108
0.208989
0.229659
0.200379
0.209051
0.196058
0.199193
0.208887
0.208921
0.196694
0.216723
0.217692
0.212399
0.213835
0.223115
0.211963
0.225573
0.211344
0.204855
0.188088
0.203633
0.209963
0.207149
0.194317
0.217692
0.198302
0.209088
0.21165
0.20665
0.212392
0.227583
0.243789
0.210152
0.223048
0.223048
0.242608
0.212365
0.206018
0.192271
0.197789
0.217427
0.212399
0.228709
0.196233
0.186676
0.21375
0.229331
0.206816
0.20081
0.242802
0.236309
0.271919
0.271919
0.277606
0.242608
0.236309
0.210771
0.195061
0.236806
0.338052
0.435537
0.338052
0.404603
0.654
0.435537
0.692902
0.882614
0.775027
0.919437
0.89393
0.961428
0.972751
0.949141
0.994362
0.976662
0.904349
0.788979
0.765186
0.786829
0.914877
0.852944
0.96193
0.969262
0.979624
0.996545
0.98239
0.971659
0.964631
0.915308
0.967095
0.978557
0.979439
0.868968
0.979588
0.904727
0.919984
0.782019
0.926446
0.997423
0.940765
0.958896
0.944058
0.697454
0.944058
0.681348
0.829275
0.813888
0.813888
0.907049
0.913328
0.91923
0.913328
0.896535
0.981177
0.849694
0.849694
0.969774
0.856479
0.973609
0.856479
0.947657
0.887688
0.86183
0.68707
0.912393
0.840962
0.86062
0.92973
0.991626
0.96592
0.999748
0.954579
0.659309
0.815894
0.760278
0.858191
0.999411
0.999491
0.961691
0.999041
0.880896
0.876018
0.800461
0.919416
0.86091
0.906699
0.903858
0.708181
0.816077
0.7133
0.674549
1
1
1
0
0.806872
0.997139
0.889009
0.903224
0.937842
0.872162
0.963292
0.806496
1
0.776481
0.937716
0.761385
0.939776
1
0.971675
0
0.997268
1
0.933118
0
1
0
0.807494
0.979862
0.771628
0.997331
0.769414
0.880807
0.758934
0.972859
0.793892
0.881694
1
1
0.765912
1
0
0.807472
0
0.657238
0
0
0.519234
0
0.51905
0
0.897369
0
0.835089
1
0.934157
0.806809
0.851319
0
0.872402
1
0.941041
0.965443
0.932065
0.436656
0.861058
0.885378
0.779616
0.779616
0.993049
0
0.94627
0
0.868882
0.848454
0.892756
0.892756
0.801858
0.867679
0.938891
0
0.842867
0
0
0.839824
0.802902
0
0.801001
0
1
1
0
0.881224
0.798004
0.884418
0
0
0.887987
0
0.966102
0.793505
0
0
0
0
0
0
0
0
1
0.998213
0
0.96764
0
1
0.97526
0
0
1
0.999365
1
0.919946
1
1
0.898915
0.83415
1
0.898915
1
0.794882
0
0.735947
0
0
0
1
0.985256
1
0
0
0
0
1
0
0
1
0
0
0.986974
0.986974
0.74419
0.786164
0.986974
0.857955
0.857955
0
0.847223
0.890709
0
0.860437
0.753945
0.753945
0.772529
0.753945
0.857712
0.834276
0.834276
0.905992
0.882787
0.875624
1
0.998821
1
0.85103
1
0.861744
0
0.85652
1
0.828604
1
1
0.828604
1
0.807574
1
1
0
0
0.725579
0
0.814762
0.805767
0.805767
0
0
1
1
0
1
1
0
0.871873
0
0.920823
1
0.881487
0.920823
1
1
1
1
1
1
1
1
0.888109
1
0.867606
1
1
0.750053
1
0.750053
1
1
0.846991
1
0.70061
0.846991
1
1
0
0.764994
1
0.988275
0.717607
0.717607
0.724561
0.996266
0
0
0
0.724561
1
1
0.453802
0.453802
1
1
0
0.453802
0
0
0.833527
0
0
0
0
0.833527
0.59673
0
0
0.59673
0
1
0.992246
0.992246
1
1
0.992246
0
0
1
1
1
1
1
1
0
1
1
1
0
0
0
0
1
0.890196
0.890196
0
0
0.890196
0
0
0
0
0
0
0
0.946371
0.946371
0
0.839389
0.839389
0.946371
0
0
0
0
0
0
1
0
1
0.929864
0.929864
0
0
0.951957
0.951957
0.929864
0
0.881975
0.881975
1
0.916807
0.881975
0
0.951395
0
1
1
0.951395
0.999183
0.999183
0.740488
1
0
0.999183
0.740488
0.929342
1
1
0.950091
0
0
1
0.950091
1
0
0
0
1
1
1
1
1
0
1
1
0
1
1
0
0.912434
1
1
1
1
0
0
0
1
0
0.998198
0.998198
0
0.9104
0.9104
0.998198
0.697869
0.860471
0.700011
0.873422
0.700011
1
0
0.873422
0.752756
0.752756
1
1
0
0
0.752756
0.676827
0.792656
0
0.610884
0.610884
0
0
1
1
0
1
0
1
0.89284
0.89284
0
0.89284
0
1
0
0
1
0
0.960338
0.960338
1
0
0.960338
0
0
1
1
1
0
0.778775
1
1
0.849547
1
0
1
1
1
0
0
0
0
0
0
0
0
0.954737
1
0.793571
1
0
0
1
1
1
0.956784
0.956784
0
0.892354
0.956784
0.903813
0.903813
0.801732
0.801732
1
0.820153
1
0.99824
0
1
0.820153
0.898818
0.898818
0
0.968708
0.968708
0.906527
0.906527
0
0.968708
0.996956
0
0.996956
0
0
0
0
0
0
0
0
1
0
0
0
0
0
0
1
0
1
0
0.801275
0.801275
1
0.801275
0
1
0
0
0
0
0
0.835938
0.835938
0
0.900927
0.900927
0.835938
0
1
1
0.125618
0.125618
0.900927
0
0
0
1
0
0
0
0
1
0.984405
0.984405
0
0.824785
0.984405
0
0
1
1
0
1
1
0
0
0
0
1
0
1
0
0
0
0
1
0
0.990762
0.990762
0
0
0.989787
0.989787
0.990762
1
0
0
0.800019
0.800019
0.327841
0.989787
1
1
0
0.800019
0.871342
0.96563
0.96563
0.867847
0.867847
0.96563
1
1
1
0.84951
0
0
1
1
1
0
1
0
0
0
1
0
1
0
0
0
0.959547
0.959547
0
1
0
0
0
0
0.959547
0.76988
0.76988
0.980761
0
1
1
1
1
0.980761
0
1
1
0.670298
0.670298
0
0
0
1
1
0.670298
0.7582
0
0
0.875137
0.875137
0
0
0
1
1
0
0.682996
0.682996
1
0
0
0.682996
1
1
0
0.807954
1
0.817629
0.817629
1
1
1
0
0
0
1
0
1
0
0.997487
0.997487
0.806431
0
0
1
0.997487
0
0
0
1
1
0
1
0.898236
0.898236
1
1
1
1
0.826526
0.826526
0.898236
1
1
1
1
0
1
1
1
0
0.921756
0.921756
0
0
0.921756
0.729651
0
1
0.729651
1
1
1
0.85473
1
0.74617
0.74617
0
1
1
1
1
0
1
1
0
1
0
1
0
0
0.809836
0
0
0.833489
0.833489
0
0
1
1
0
0.547082
0.547082
0
0
0.547082
1
0
0
1
0
0
0
0.796656
0.796656
0
0.840019
0.840019
0.796656
0
0
0.879715
0.937968
0.937968
0
1
0
0.937968
0.86859
0.86859
0
1
1
0
0.841674
0.841674
0
1
0
0.841674
0.810724
0.810724
1
0.881997
0
0
1
0
0
0
1
1
0
0
0
1
0
0
1
1
0.821154
0.821154
0
0.937453
0.821154
0.816326
0
1
0.937453
1
1
0.826064
0
0
0.826064
0
1
0.822674
0.822674
1
0.908429
0.822674
1
1
0.715096
0.717755
0.717755
0.800325
0.715096
0.717755
0
1
1
0
1
1
1
1
0
1
1
0
1
1
1
0
0
0.818597
0
0.818597
0
0
0
0
0
0.93329
0.93329
1
0
0
0
0.774486
0.93329
0
0
0
0.598887
1
1
1
1
0.598887
1
0
0
0
0
1
0
0
1
0
1
0
0
1
0.791895
1
1
1
0
1
1
1
1
0
0
0
0.991337
0.819587
0.819587
1
0.831957
0.831957
0.991337
0.819587
0
0
1
1
1
0
0
0
0.86401
0
0
0
0
0
0.86401
0.896632
0.896632
0
0
0.896632
0.783112
0.783112
1
0.842046
0
0.886609
0
0
0.886609
1
1
1
0
0.830072
1
0
0
0
1
0.830072
0
1
1
1
1
0
1
1
1
1
1
1
0.688364
0.688364
1
1
1
1
0
0
0.688364
0
0
0
0
0
0
1
0
0
1
1
0
0.958506
0
0.958506
0
1
1
1
0.793615
0.958506
0
0
0
0
0
0.793615
1
1
0
1
1
0
0
1
0
0
0.980959
0.980959
1
0
1
0.980959
0.994968
0.996416
0
0
0
1
0
0
1
0
0
0
0
0
0.874538
0.93912
0.93912
0
0
0.864615
0.874538
0.93912
0.998101
0.998101
0
1
1
1
0.998101
0.92162
0
0
0
0
0
0.87134
0.87134
0
0
0
0.87134
0.567062
0.698471
1
0.765637
1
0.80524
0.80524
1
0.982163
0.982163
0.903809
0.903809
1
0.848976
0.982163
1
1
0
1
0.975922
0.975922
1
1
0
0.975922
1
0
1
0.853479
1
0.781741
0.781741
1
0.816947
0.816947
1
0
0.816947
0.899807
0.899807
0
0
0
0
0.899807
0.0887207
0.0887207
0
0
1
1
1
0.968535
0.968535
0
0
1
0.874178
0.968535
0.857932
0.857932
1
1
0
0.874178
0.808685
1
1
0
0
1
1
0
1
0
0
1
0.62542
0
0
0.62542
0.696761
1
0
0
0
0
0.974662
0.974662
0
1
0
0.974662
0.822684
0.664437
1
1
1
0.8987
1
0
0.820425
0.820425
0
0.970784
0.849874
0.849874
0.647462
0.85047
0.85047
0.970784
0.849874
0.742853
0.599944
0.771839
0
0
0.599944
0.771839
0
0
1
0.997241
0.997241
0.934148
0.934148
0
0.856667
0.856667
0.410055
0.997241
0.934148
0.788131
0.788131
0
0.791998
1
0.995683
0.995683
0.760477
0.720623
0.720623
0.998284
0.995683
1
0.720623
0.647258
0.661854
0.368887
0.371753
0.355468
0.373233
0.374958
0.377783
0.357147
0.358512
0.363505
0.346624
0.363491
0.36432
0.374926
0.366991
0.360719
0.372438
0.355713
0.376692
0.37527
0.360286
0.372024
0.3624
0.354572
0.379922
0.362015
0.386507
0.366955
0.3534
0.355475
0.361387
0.350313
0.348003
0.365311
0.373612
0.359128
0.378616
0.365133
0.371003
0.377717
0.367648
0.367141
0.372451
0.358779
0.362651
0.354025
0.349892
0.348142
0.381222
0.36886
0.365407
0.361702
0.372023
0.369494
0.359908
0.391126
0.374742
0.350555
0.36887
0.388006
0.361821
0.349654
0.380346
0.365361
0.348539
0.360687
0.372688
0.375709
0.366116
0.362206
0.363951
0.363087
0.355081
0.375014
0.378804
0.36299
0.366091
0.37019
0.362887
0.350311
0.358366
0.355942
0.381168
0.383895
0.361072
0.368416
0.360248
0.371045
0.384137
0.35813
0.359941
0.372525
0.369739
0.349569
0.350123
0.381033
0.385132
0.380097
0.349056
0.363059
0.377957
0.353044
0.374206
0.380168
0.364928
0.362705
0.341524
0.370731
0.375816
0.367985
0.378375
0.374383
0.38082
0.377181
0.365055
0.354329
0.348982
0.355474
0.373468
0.382435
0.379749
0.361277
0.362042
0.371277
0.354111
0.362592
0.350893
0.37022
0.362902
0.36289
0.370841
0.370586
0.360956
0.353008
0.369897
0.381237
0.371761
0.36956
0.377825
0.369105
0.348244
0.377351
0.360722
0.355595
0.360063
0.374314
0.368551
0.363372
0.370319
0.351393
0.362195
0.363913
0.354371
0.377058
0.368378
0.385703
0.374786
0.381802
0.365435
0.380376
0.365211
0.352122
0.370971
0.389202
0.363
0.365433
0.357914
0.36276
0.351685
0.364925
0.366676
0.372319
0.364566
0.366001
0.368653
0.384945
0.346164
0.359654
0.379205
0.378862
0.375531
0.360744
0.362154
0.366451
0.374884
0.354534
0.353071
0.400843
0.363846
0.3508
0.388859
0.36236
0.373438
0.338403
0.352424
0.360622
0.359206
0.374625
0.362447
0.358392
0.365956
0.357859
0.394911
0.381091
0.373358
0.35628
0.350778
0.367804
0.357715
0.370309
0.381213
0.371883
0.367005
0.363327
0.361776
0.370953
0.366224
0.35138
0.355968
0.369492
0.39696
0.374924
0.361536
0.360009
0.37223
0.361323
0.379235
0.364222
0.357145
0.381508
0.360004
0.36794
0.37705
0.356843
0.362687
0.359374
0.373927
0.365558
0.37616
0.353274
0.386418
0.372442
0.363611
0.365478
0.354332
0.371687
0.368932
0.355102
0.344689
0.360724
0.367381
0.365791
0.363747
0.369521
0.366269
0.380484
0.368589
0.350431
0.380078
0.384259
0.345027
0.352945
0.372005
0.380541
0.345081
0.353538
0.377187
0.360236
0.357125
0.365274
0.373073
0.356006
0.358864
0.373335
0.369244
0.378033
0.377564
0.369562
0.360011
0.376862
0.382453
0.370798
0.353474
0.371656
0.374989
0.353008
0.348951
0.356525
0.360562
0.390467
0.38175
0.371972
0.365761
0.359331
0.357674
0.36813
0.372436
0.344741
0.350695
0.369609
0.374605
0.384774
0.369146
0.363913
0.368892
0.357819
0.374714
0.370176
0.361183
0.355767
0.371208
0.374453
0.354784
0.355025
0.374335
0.381838
0.366002
0.372969
0.38523
0.368463
0.354367
0.360678
0.35865
0.369373
0.357739
0.353296
0.372393
0.381686
0.376542
0.352617
0.340667
0.375439
0.38017
0.357621
0.37746
0.360901
0.372896
0.369009
0.370123
0.357542
0.357541
0.364249
0.372875
0.353843
0.365379
0.363839
0.378926
0.366017
0.360531
0.355748
0.369942
0.373097
0.360521
0.36573
0.377907
0.377917
0.367429
0.3737
0.364247
0.373559
0.353671
0.358759
0.353821
0.34703
0.367619
0.375154
0.384351
0.355743
0.360709
0.370966
0.359874
0.364567
0.387317
0.372181
0.350799
0.373212
0.369633
0.363656
0.370202
0.362028
0.375998
0.373437
0.372858
0.358074
0.358143
0.373056
0.353663
0.373065
0.362022
0.360369
0.368707
0.363292
0.376573
0.368044
0.368678
0.360961
0.350389
0.339636
0.340418
0.38576
0.37694
0.369725
0.354302
0.360568
0.351703
0.34726
0.380356
0.370073
0.363536
0.37662
0.378978
0.367332
0.372384
0.375565
0.362125
0.371788
0.370002
0.357481
0.383534
0.379188
0.366974
0.375682
0.371769
0.362624
0.367491
0.369045
0.350414
0.363202
0.374214
0.36685
0.371265
0.359461
0.386225
0.366872
0.347179
0.370226
0.356973
0.39328
0.372833
0.375202
0.363059
0.342622
0.374627
0.357801
0.35163
0.379878
0.353119
0.362118
0.366266
0.370403
0.359005
0.362379
0.37608
0.361076
0.349308
0.362543
0.36877
0.353797
0.36738
0.366915
0.34375
0.358485
0.379994
0.352391
0.365509
0.365691
0.36225
0.374102
0.381327
0.366234
0.349294
0.360052
0.399655
0.371831
0.362399
0.350733
0.388417
0.375535
0.355834
0.372336
0.382307
0.367805
0.36094
0.367137
0.373476
0.383887
0.360974
0.358019
0.355224
0.365081
0.367004
0.369967
0.358256
0.372655
0.377965
0.369544
0.356898
0.360104
0.347136
0.366009
0.38437
0.365753
0.370814
0.362631
0.37424
0.360184
0.368335
0.348045
0.368381
0.369251
0.369249
0.380078
0.366486
0.364025
0.35783
0.364921
0.384036
0.376002
0.373366
0.361437
0.376714
0.368195
0.370332
0.357173
0.366464
0.36378
0.365312
0.364335
0.361445
0.371106
0.374573
0.355448
0.35698
0.365853
0.366395
0.346473
0.34933
0.357225
0.368727
0.370297
0.367809
0.366225
0.367088
0.386135
0.362689
0.361808
0.362094
0.36637
0.361511
0.370506
0.362042
0.384476
0.374015
0.361811
0.372125
0.391066
0.351121
0.364659
0.359915
0.377468
0.361074
0.356784
0.34917
0.356938
0.371414
0.372394
0.380953
0.362359
0.360666
0.357097
0.362557
0.382602
0.371474
0.368243
0.363713
0.343144
0.355749
0.377681
0.371608
0.374034
0.356399
0.36014
0.377713
0.35676
0.367332
0.368163
0.362186
0.363063
0.374328
0.383345
0.36479
0.341547
0.375929
0.375837
0.38292
0.357116
0.346571
0.355967
0.370124
0.379937
0.372969
0.361272
0.354358
0.368998
0.377365
0.373104
0.366511
0.366707
0.342901
0.355483
0.361724
0.362371
0.37608
0.368466
0.366112
0.361021
0.368659
0.360268
0.378491
0.369974
0.35524
0.38653
0.36741
0.344439
0.381278
0.375322
0.383372
0.363744
0.369692
0.374683
0.370046
0.3606
0.374721
0.382482
0.375439
0.363261
0.349304
0.364007
0.380523
0.383214
0.349618
0.37117
0.370023
0.371012
0.358487
0.343294
0.373376
0.367196
0.382596
0.358652
0.36076
0.374163
0.36751
0.362595
0.365229
0.355281
0.354666
0.358372
0.39327
0.380428
0.354849
0.357129
0.378952
0.370347
0.361617
0.371718
0.357667
0.392369
0.38469
0.366882
0.369163
0.352065
0.343293
0.38386
0.376117
0.345477
0.355803
0.362347
0.381668
0.36634
0.367718
0.373622
0.36155
0.359375
0.394873
0.365969
0.368395
0.380761
0.362764
0.381552
0.36171
0.350167
0.345237
0.369966
0.372116
0.364567
0.351594
0.351112
0.365205
0.368983
0.357808
0.359006
0.381703
0.384036
0.361176
0.372255
0.360614
0.370809
0.358124
0.369977
0.385271
0.380179
0.368345
0.35594
0.357803
0.349102
0.361253
0.363082
0.384537
0.381938
0.365734
0.365126
0.3742
0.347065
0.36184
0.369082
0.372027
0.364364
0.380069
0.363813
0.341717
0.354522
0.372653
0.365963
0.369635
0.361763
0.381065
0.369057
0.369792
0.375145
0.356464
0.357938
0.381377
0.385321
0.370452
0.368111
0.365153
0.354252
0.381502
0.374284
0.354829
0.33941
0.381442
0.388637
0.355576
0.359446
0.374807
0.364906
0.373692
0.377331
0.366494
0.370276
0.36896
0.359201
0.373442
0.376522
0.360542
0.36073
0.374884
0.349576
0.364963
0.382991
0.372851
0.385975
0.359809
0.357178
0.36916
0.350309
0.371464
0.36753
0.361944
0.387293
0.372516
0.361704
0.358424
0.384009
0.38127
0.377516
0.366262
0.363479
0.382164
0.345896
0.367222
0.379346
0.369814
0.359553
0.362793
0.359486
0.357292
0.378093
0.36301
0.365218
0.350508
0.355027
0.354688
0.370999
0.374802
0.352249
0.364571
0.381994
0.382915
0.371816
0.366206
0.37918
0.365662
0.373672
0.353378
0.3564
0.369923
0.346672
0.361037
0.388605
0.378082
0.374218
0.354691
0.383073
0.373303
0.367723
0.360849
0.367153
0.354186
0.361541
0.362781
0.364078
0.364382
0.380532
0.353104
0.367941
0.373711
0.382915
0.35662
0.363559
0.371066
0.372977
0.379622
0.35967
0.357141
0.369354
0.383049
0.368329
0.356714
0.368772
0.362565
0.371828
0.35728
0.363162
0.368025
0.363527
0.346272
0.366938
0.370964
0.367807
0.37876
0.369603
0.3662
0.381515
0.387293
0.369671
0.363249
0.340052
0.351522
0.376136
0.374338
0.378018
0.363198
0.359053
0.364202
0.365557
0.353459
0.358979
0.373065
0.396071
0.365013
0.379508
0.349553
0.355021
0.359403
0.361141
0.37582
0.366886
0.359367
0.368579
0.377775
0.369732
0.35854
0.357802
0.372941
0.384043
0.382678
0.361071
0.366441
0.347241
0.375098
0.379179
0.372925
0.360296
0.359268
0.360539
0.36551
0.348872
0.367058
0.369368
0.36315
0.35241
0.371338
0.374651
0.380284
0.368285
0.364486
0.35687
0.367398
0.348556
0.36032
0.366818
0.36886
0.357614
0.36574
0.366132
0.357082
0.360456
0.364298
0.370151
0.360884
0.360939
0.357311
0.378176
0.38999
0.357076
0.362223
0.381139
0.366644
0.353825
0.36211
0.372227
0.362115
0.370315
0.377203
0.380746
0.356086
0.364006
0.355938
0.358361
0.36435
0.381765
0.378847
0.37162
0.360881
0.36427
0.348312
0.346379
0.375799
0.37668
0.361436
0.376254
0.365407
0.337161
0.361844
0.374103
0.369837
0.372229
0.370882
0.366753
0.382475
0.349596
0.374648
0.359548
0.365247
0.351184
0.386562
0.369848
0.373472
0.377358
0.362793
0.362615
0.373593
0.363184
0.358019
0.37182
0.348747
0.352082
0.367624
0.365378
0.373577
0.379848
0.367621
0.362515
0.390745
0.378042
0.349016
0.365894
0.375201
0.363932
0.348349
0.361375
0.362921
0.367099
0.374558
0.349406
0.365632
0.374548
0.383026
0.357483
0.371978
0.371053
0.376522
0.367929
0.344074
0.344344
0.347064
0.375837
0.369891
0.360945
0.37811
0.365001
0.366743
0.37198
0.372358
0.377538
0.365722
0.366492
0.369296
0.356848
0.36092
0.359201
0.366276
0.383025
0.360043
0.366497
0.377289
0.374018
0.346236
0.376353
0.379316
0.378959
0.360328
0.37549
0.356937
0.359835
0.347938
0.369137
0.368843
0.376438
0.351002
0.351201
0.371677
0.355041
0.361644
0.370567
0.346962
0.361785
0.378368
0.389328
0.344763
0.380359
0.362812
0.381732
0.377393
0.364884
0.387026
0.362029
0.36793
0.375267
0.36717
0.362623
0.359253
0.365905
0.346247
0.342993
0.37728
0.37616
0.357844
0.346514
0.367771
0.376293
0.368793
0.375822
0.377979
0.367589
0.372278
0.363265
0.363408
0.352746
0.345682
0.382707
0.358104
0.369149
0.363784
0.386164
0.363495
0.354615
0.353819
0.360238
0.367144
0.364529
0.370651
0.37554
0.362655
0.373177
0.35683
0.369825
0.35525
0.362989
0.362933
0.369091
0.372861
0.360108
0.349269
0.352072
0.361182
0.357869
0.372253
0.375069
0.370581
0.378379
0.378452
0.36052
0.360276
0.359472
0.373626
0.361854
0.358971
0.374623
0.355651
0.346498
0.365238
0.360389
0.365847
0.381228
0.381105
0.37405
0.371971
0.368665
0.355925
0.364881
0.385911
0.382671
0.358026
0.345162
0.360394
0.358853
0.379191
0.384479
0.360769
0.362958
0.355495
0.358491
0.376849
0.368698
0.357091
0.372202
0.362925
0.367857
0.372867
0.355797
0.38207
0.368309
0.357989
0.362894
0.384598
0.369118
0.360466
0.385644
0.375885
0.358815
0.339731
0.36913
0.380822
0.373596
0.375956
0.369979
0.36754
0.358783
0.370129
0.374028
0.371715
0.383406
0.366264
0.359014
0.362641
0.364761
0.354238
0.348544
0.376552
0.356294
0.360468
0.382272
0.380316
0.364446
0.36767
0.352015
0.374158
0.38516
0.366601
0.346297
0.356873
0.376705
0.343573
0.366041
0.379286
0.367042
0.368952
0.362445
0.358713
0.360853
0.367777
0.377142