# vtk DataFile Version 2.0
2D Surface
ASCII
DATASET UNSTRUCTURED_GRID
POINTS 2687 float
7.16148e-05 -2.817e-05 0. 
7.164e-05 -2.81712e-05 0. 
7.173e-05 -2.81701e-05 0. 
7.182e-05 -2.81772e-05 0. 
7.191e-05 -2.81805e-05 0. 
7.2e-05 -2.81838e-05 0. 
7.209e-05 -2.81874e-05 0. 
7.218e-05 -2.8194e-05 0. 
7.227e-05 -2.81938e-05 0. 
7.236e-05 -2.8196e-05 0. 
7.245e-05 -2.82035e-05 0. 
7.254e-05 -2.82088e-05 0. 
7.263e-05 -2.82098e-05 0. 
7.272e-05 -2.82111e-05 0. 
7.281e-05 -2.82056e-05 0. 
7.29e-05 -2.82063e-05 0. 
7.299e-05 -2.82087e-05 0. 
7.308e-05 -2.82115e-05 0. 
7.317e-05 -2.82027e-05 0. 
7.326e-05 -2.82051e-05 0. 
7.335e-05 -2.82033e-05 0. 
7.344e-05 -2.82077e-05 0. 
7.353e-05 -2.8207e-05 0. 
7.362e-05 -2.81926e-05 0. 
7.371e-05 -2.82008e-05 0. 
7.38e-05 -2.82017e-05 0. 
7.389e-05 -2.82111e-05 0. 
7.398e-05 -2.82104e-05 0. 
7.407e-05 -2.82067e-05 0. 
7.416e-05 -2.82042e-05 0. 
7.425e-05 -2.82102e-05 0. 
7.434e-05 -2.82085e-05 0. 
7.443e-05 -2.82118e-05 0. 
7.452e-05 -2.82111e-05 0. 
7.461e-05 -2.82085e-05 0. 
7.47e-05 -2.82063e-05 0. 
7.479e-05 -2.82087e-05 0. 
7.488e-05 -2.82076e-05 0. 
7.497e-05 -2.82061e-05 0. 
7.506e-05 -2.8208e-05 0. 
7.515e-05 -2.82106e-05 0. 
7.524e-05 -2.8211e-05 0. 
7.533e-05 -2.82072e-05 0. 
7.542e-05 -2.82039e-05 0. 
7.551e-05 -2.82e-05 0. 
7.56e-05 -2.81981e-05 0. 
7.569e-05 -2.82045e-05 0. 
7.578e-05 -2.82091e-05 0. 
7.587e-05 -2.82105e-05 0. 
7.596e-05 -2.82061e-05 0. 
7.605e-05 -2.81992e-05 0. 
7.614e-05 -2.81994e-05 0. 
7.623e-05 -2.81967e-05 0. 
7.632e-05 -2.81928e-05 0. 
7.641e-05 -2.81984e-05 0. 
7.65e-05 -2.82033e-05 0. 
7.659e-05 -2.82066e-05 0. 
7.668e-05 -2.82032e-05 0. 
7.677e-05 -2.82097e-05 0. 
7.686e-05 -2.82126e-05 0. 
7.695e-05 -2.82142e-05 0. 
7.704e-05 -2.82122e-05 0. 
7.713e-05 -2.8203e-05 0. 
7.722e-05 -2.82057e-05 0. 
7.731e-05 -2.82063e-05 0. 
7.74e-05 -2.82084e-05 0. 
7.749e-05 -2.82043e-05 0. 
7.758e-05 -2.82005e-05 0. 
7.767e-05 -2.8198e-05 0. 
7.776e-05 -2.82059e-05 0. 
7.785e-05 -2.82034e-05 0. 
7.794e-05 -2.82038e-05 0. 
7.803e-05 -2.82074e-05 0. 
7.812e-05 -2.82014e-05 0. 
7.821e-05 -2.8205e-05 0. 
7.83e-05 -2.8204e-05 0. 
7.839e-05 -2.81976e-05 0. 
7.848e-05 -2.8197e-05 0. 
7.857e-05 -2.81949e-05 0. 
7.866e-05 -2.81881e-05 0. 
7.875e-05 -2.81856e-05 0. 
7.884e-05 -2.81789e-05 0. 
7.88846e-05 -2.817e-05 0. 
6.87062e-05 -2.808e-05 0. 
6.876e-05 -2.80825e-05 0. 
6.885e-05 -2.80916e-05 0. 
6.894e-05 -2.80942e-05 0. 
6.903e-05 -2.80925e-05 0. 
6.912e-05 -2.80903e-05 0. 
6.921e-05 -2.8098e-05 0. 
6.93e-05 -2.81033e-05 0. 
6.939e-05 -2.81062e-05 0. 
6.948e-05 -2.81057e-05 0. 
6.957e-05 -2.81127e-05 0. 
6.966e-05 -2.81124e-05 0. 
6.975e-05 -2.81141e-05 0. 
6.984e-05 -2.81158e-05 0. 
6.993e-05 -2.81119e-05 0. 
7.002e-05 -2.81124e-05 0. 
7.011e-05 -2.81124e-05 0. 
7.02e-05 -2.81235e-05 0. 
7.029e-05 -2.81228e-05 0. 
7.038e-05 -2.81275e-05 0. 
7.047e-05 -2.81297e-05 0. 
7.056e-05 -2.81334e-05 0. 
7.065e-05 -2.81344e-05 0. 
7.074e-05 -2.81338e-05 0. 
7.083e-05 -2.8134e-05 0. 
7.092e-05 -2.81305e-05 0. 
7.101e-05 -2.81374e-05 0. 
7.11e-05 -2.81432e-05 0. 
7.119e-05 -2.81515e-05 0. 
7.128e-05 -2.81624e-05 0. 
7.137e-05 -2.81664e-05 0. 
7.146e-05 -2.81618e-05 0. 
7.155e-05 -2.8167e-05 0. 
7.893e-05 -2.81609e-05 0. 
7.902e-05 -2.81601e-05 0. 
7.911e-05 -2.81589e-05 0. 
7.92e-05 -2.81552e-05 0. 
7.929e-05 -2.81488e-05 0. 
7.938e-05 -2.81449e-05 0. 
7.947e-05 -2.81449e-05 0. 
7.956e-05 -2.81434e-05 0. 
7.965e-05 -2.81378e-05 0. 
7.974e-05 -2.81356e-05 0. 
7.983e-05 -2.81302e-05 0. 
7.992e-05 -2.81224e-05 0. 
8.001e-05 -2.81213e-05 0. 
8.01e-05 -2.81232e-05 0. 
8.019e-05 -2.81216e-05 0. 
8.028e-05 -2.81193e-05 0. 
8.037e-05 -2.81131e-05 0. 
8.046e-05 -2.81054e-05 0. 
8.055e-05 -2.81046e-05 0. 
8.064e-05 -2.80979e-05 0. 
8.073e-05 -2.80919e-05 0. 
8.082e-05 -2.8089e-05 0. 
8.091e-05 -2.80849e-05 0. 
8.1e-05 -2.80819e-05 0. 
8.109e-05 -2.8082e-05 0. 
8.11135e-05 -2.808e-05 0. 
6.71226e-05 -2.799e-05 0. 
6.714e-05 -2.79927e-05 0. 
6.723e-05 -2.79997e-05 0. 
6.732e-05 -2.80029e-05 0. 
6.741e-05 -2.80122e-05 0. 
6.75e-05 -2.8021e-05 0. 
6.759e-05 -2.80258e-05 0. 
6.768e-05 -2.80298e-05 0. 
6.777e-05 -2.80295e-05 0. 
6.786e-05 -2.80262e-05 0. 
6.795e-05 -2.80393e-05 0. 
6.804e-05 -2.80473e-05 0. 
6.813e-05 -2.80519e-05 0. 
6.822e-05 -2.80498e-05 0. 
6.831e-05 -2.80527e-05 0. 
6.84e-05 -2.80593e-05 0. 
6.849e-05 -2.80705e-05 0. 
6.858e-05 -2.80755e-05 0. 
6.867e-05 -2.80783e-05 0. 
8.118e-05 -2.80744e-05 0. 
8.127e-05 -2.80639e-05 0. 
8.136e-05 -2.80662e-05 0. 
8.145e-05 -2.80586e-05 0. 
8.154e-05 -2.80499e-05 0. 
8.163e-05 -2.8047e-05 0. 
8.172e-05 -2.80402e-05 0. 
8.181e-05 -2.80451e-05 0. 
8.19e-05 -2.80464e-05 0. 
8.199e-05 -2.80419e-05 0. 
8.208e-05 -2.80434e-05 0. 
8.217e-05 -2.80421e-05 0. 
8.226e-05 -2.80382e-05 0. 
8.235e-05 -2.80336e-05 0. 
8.244e-05 -2.80281e-05 0. 
8.253e-05 -2.80243e-05 0. 
8.262e-05 -2.8016e-05 0. 
8.271e-05 -2.80081e-05 0. 
8.28e-05 -2.80007e-05 0. 
8.289e-05 -2.79938e-05 0. 
8.29519e-05 -2.799e-05 0. 
6.52279e-05 -2.79e-05 0. 
6.525e-05 -2.79034e-05 0. 
6.534e-05 -2.79087e-05 0. 
6.543e-05 -2.79162e-05 0. 
6.552e-05 -2.79245e-05 0. 
6.561e-05 -2.79288e-05 0. 
6.57e-05 -2.79307e-05 0. 
6.579e-05 -2.79286e-05 0. 
6.588e-05 -2.79295e-05 0. 
6.597e-05 -2.79372e-05 0. 
6.606e-05 -2.79396e-05 0. 
6.615e-05 -2.79442e-05 0. 
6.624e-05 -2.795e-05 0. 
6.633e-05 -2.79567e-05 0. 
6.642e-05 -2.79601e-05 0. 
6.651e-05 -2.79649e-05 0. 
6.66e-05 -2.79658e-05 0. 
6.669e-05 -2.79627e-05 0. 
6.678e-05 -2.79699e-05 0. 
6.687e-05 -2.79749e-05 0. 
6.696e-05 -2.79772e-05 0. 
6.705e-05 -2.79785e-05 0. 
8.298e-05 -2.79883e-05 0. 
8.307e-05 -2.79897e-05 0. 
8.316e-05 -2.79835e-05 0. 
8.325e-05 -2.79766e-05 0. 
8.334e-05 -2.79679e-05 0. 
8.343e-05 -2.79596e-05 0. 
8.352e-05 -2.7959e-05 0. 
8.361e-05 -2.79535e-05 0. 
8.37e-05 -2.79498e-05 0. 
8.379e-05 -2.79425e-05 0. 
8.388e-05 -2.79357e-05 0. 
8.397e-05 -2.79248e-05 0. 
8.406e-05 -2.79206e-05 0. 
8.415e-05 -2.79211e-05 0. 
8.424e-05 -2.79147e-05 0. 
8.433e-05 -2.79061e-05 0. 
8.44162e-05 -2.79e-05 0. 
6.41137e-05 -2.781e-05 0. 
6.417e-05 -2.78116e-05 0. 
6.426e-05 -2.78209e-05 0. 
6.435e-05 -2.78378e-05 0. 
6.444e-05 -2.78467e-05 0. 
6.453e-05 -2.78532e-05 0. 
6.462e-05 -2.78551e-05 0. 
6.471e-05 -2.78594e-05 0. 
6.48e-05 -2.78618e-05 0. 
6.489e-05 -2.78719e-05 0. 
6.498e-05 -2.788e-05 0. 
6.507e-05 -2.78781e-05 0. 
6.516e-05 -2.78896e-05 0. 
8.442e-05 -2.78997e-05 0. 
8.451e-05 -2.78959e-05 0. 
8.46e-05 -2.78897e-05 0. 
8.469e-05 -2.78837e-05 0. 
8.478e-05 -2.78721e-05 0. 
8.487e-05 -2.78644e-05 0. 
8.496e-05 -2.78594e-05 0. 
8.505e-05 -2.78535e-05 0. 
8.514e-05 -2.78507e-05 0. 
8.523e-05 -2.78415e-05 0. 
8.532e-05 -2.78334e-05 0. 
8.541e-05 -2.78249e-05 0. 
8.55e-05 -2.78163e-05 0. 
8.5559e-05 -2.781e-05 0. 
6.30897e-05 -2.772e-05 0. 
6.309e-05 -2.772e-05 0. 
6.318e-05 -2.77329e-05 0. 
6.327e-05 -2.77435e-05 0. 
6.336e-05 -2.77535e-05 0. 
6.345e-05 -2.77575e-05 0. 
6.354e-05 -2.77592e-05 0. 
6.363e-05 -2.77627e-05 0. 
6.372e-05 -2.77719e-05 0. 
6.381e-05 -2.77817e-05 0. 
6.39e-05 -2.77944e-05 0. 
6.399e-05 -2.78009e-05 0. 
6.408e-05 -2.78091e-05 0. 
8.559e-05 -2.78067e-05 0. 
8.568e-05 -2.77943e-05 0. 
8.577e-05 -2.7786e-05 0. 
8.586e-05 -2.77771e-05 0. 
8.595e-05 -2.77808e-05 0. 
8.604e-05 -2.77787e-05 0. 
8.613e-05 -2.77731e-05 0. 
8.622e-05 -2.77691e-05 0. 
8.631e-05 -2.7757e-05 0. 
8.64e-05 -2.77437e-05 0. 
8.649e-05 -2.77337e-05 0. 
8.658e-05 -2.77235e-05 0. 
8.66447e-05 -2.772e-05 0. 
6.22218e-05 -2.763e-05 0. 
6.228e-05 -2.76417e-05 0. 
6.237e-05 -2.7654e-05 0. 
6.246e-05 -2.76599e-05 0. 
6.255e-05 -2.76654e-05 0. 
6.264e-05 -2.76742e-05 0. 
6.273e-05 -2.76863e-05 0. 
6.282e-05 -2.76981e-05 0. 
6.291e-05 -2.77093e-05 0. 
6.3e-05 -2.7714e-05 0. 
8.667e-05 -2.77186e-05 0. 
8.676e-05 -2.77144e-05 0. 
8.685e-05 -2.77095e-05 0. 
8.694e-05 -2.77067e-05 0. 
8.703e-05 -2.77011e-05 0. 
8.712e-05 -2.7694e-05 0. 
8.721e-05 -2.76846e-05 0. 
8.73e-05 -2.76726e-05 0. 
8.739e-05 -2.76717e-05 0. 
8.748e-05 -2.76679e-05 0. 
8.757e-05 -2.76613e-05 0. 
8.766e-05 -2.76447e-05 0. 
8.775e-05 -2.76353e-05 0. 
8.77981e-05 -2.763e-05 0. 
6.17054e-05 -2.754e-05 0. 
6.174e-05 -2.75514e-05 0. 
6.183e-05 -2.75644e-05 0. 
6.192e-05 -2.75829e-05 0. 
6.201e-05 -2.75946e-05 0. 
6.21e-05 -2.76126e-05 0. 
6.219e-05 -2.76236e-05 0. 
8.784e-05 -2.76254e-05 0. 
8.793e-05 -2.76134e-05 0. 
8.802e-05 -2.76026e-05 0. 
8.811e-05 -2.75816e-05 0. 
8.82e-05 -2.75687e-05 0. 
8.82794e-05 -2.754e-05 0. 
6.15145e-05 -2.745e-05 0. 
6.156e-05 -2.74955e-05 0. 
6.165e-05 -2.75218e-05 0. 
8.829e-05 -2.75362e-05 0. 
8.838e-05 -2.75279e-05 0. 
8.847e-05 -2.74558e-05 0. 
8.84758e-05 -2.745e-05 0. 
6.14491e-05 -2.736e-05 0. 
6.147e-05 -2.73888e-05 0. 
8.85415e-05 -2.736e-05 0. 
6.14308e-05 -2.727e-05 0. 
8.856e-05 -2.72874e-05 0. 
8.85644e-05 -2.727e-05 0. 
6.14282e-05 -2.718e-05 0. 
8.85698e-05 -2.718e-05 0. 
6.14287e-05 -2.709e-05 0. 
8.85737e-05 -2.709e-05 0. 
6.14315e-05 -2.7e-05 0. 
8.85746e-05 -2.7e-05 0. 
6.14289e-05 -2.691e-05 0. 
8.85756e-05 -2.691e-05 0. 
6.14271e-05 -2.682e-05 0. 
8.85772e-05 -2.682e-05 0. 
6.14321e-05 -2.673e-05 0. 
8.85786e-05 -2.673e-05 0. 
6.14288e-05 -2.664e-05 0. 
8.858e-05 -2.664e-05 0. 
6.14262e-05 -2.655e-05 0. 
8.85827e-05 -2.655e-05 0. 
6.14287e-05 -2.646e-05 0. 
8.85818e-05 -2.646e-05 0. 
6.14301e-05 -2.637e-05 0. 
8.8582e-05 -2.637e-05 0. 
6.14307e-05 -2.628e-05 0. 
8.85835e-05 -2.628e-05 0. 
6.14275e-05 -2.619e-05 0. 
8.8583e-05 -2.619e-05 0. 
6.14195e-05 -2.61e-05 0. 
8.85831e-05 -2.61e-05 0. 
6.14185e-05 -2.601e-05 0. 
8.85759e-05 -2.601e-05 0. 
6.14278e-05 -2.592e-05 0. 
8.85773e-05 -2.592e-05 0. 
6.14209e-05 -2.583e-05 0. 
8.85802e-05 -2.583e-05 0. 
6.1416e-05 -2.574e-05 0. 
8.85825e-05 -2.574e-05 0. 
6.14169e-05 -2.565e-05 0. 
8.85809e-05 -2.565e-05 0. 
6.14178e-05 -2.556e-05 0. 
8.85782e-05 -2.556e-05 0. 
6.14119e-05 -2.547e-05 0. 
8.85858e-05 -2.547e-05 0. 
6.14106e-05 -2.538e-05 0. 
8.85875e-05 -2.538e-05 0. 
6.14108e-05 -2.529e-05 0. 
8.85796e-05 -2.529e-05 0. 
6.14051e-05 -2.52e-05 0. 
8.85796e-05 -2.52e-05 0. 
[...]
POINT_DATA 2687
SCALARS Coverage0 float 1
LOOKUP_TABLE default
0.266857
0.266857
0.234508
0.21371
0.233735
0.248943
0.264087
0.255928
0.253606
0.223889
0.249375
0.253366
0.237309
0.21708
0.209119
0.239126
0.26531
0.245659
0.218693
0.247181
0.260964
0.226826
0.225776
0.264235
0.270088
0.278625
0.270404
0.258251
0.240634
0.235996
0.230248
0.229635
0.242441
0.242761
0.267761
0.273969
0.230416
0.214351
0.23043
0.228933
0.246172
0.250747
0.22339
0.253962
0.276957
0.269517
0.246703
0.263323
0.239402
0.21021
0.228783
0.241227
0.240421
0.240464
0.236528
0.200838
0.22489
0.24873
0.265679
0.264731
0.241529
0.229464
0.268753
0.291858
0.248565
0.238925
0.268455
0.240477
0.233098
0.257237
0.243921
0.232938
0.226945
0.216808
0.254352
0.257555
0.26349
0.254881
0.226571
0.233442
0.226777
0.229063
0.229063
0.275819
0.235276
0.215711
0.229912
0.234349
0.241341
0.236982
0.227122
0.225206
0.236244
0.252627
0.232297
0.22689
0.253478
0.229879
0.239107
0.250317
0.239661
0.225936
0.238542
0.232878
0.260278
0.25035
0.236935
0.251056
0.235217
0.23109
0.259203
0.225072
0.251611
0.262398
0.251249
0.262435
0.242498
0.254052
0.279609
0.250228
0.264833
0.277672
0.260413
0.25272
0.255282
0.261342
0.283398
0.258968
0.244587
0.248025
0.23941
0.238324
0.269958
0.235483
0.201351
0.239798
0.251523
0.263548
0.270015
0.234789
0.228409
0.228409
0.256297
0.256297
0.251207
0.256019
0.247094
0.233356
0.233121
0.213644
0.212818
0.249952
0.250468
0.247259
0.232571
0.245466
0.25737
0.257327
0.265601
0.246051
0.275819
0.224428
0.234382
0.238766
0.22934
0.233425
0.245889
0.239665
0.215274
0.212179
0.235058
0.254429
0.255587
0.244839
0.246356
0.245503
0.256279
0.232237
0.249035
0.239651
0.250116
0.232486
0.232592
0.232592
0.227243
0.216429
0.20909
0.225195
0.266004
0.241748
0.236399
0.239186
0.235352
0.255411
0.253623
0.23848
0.207339
0.229096
0.235716
0.24065
0.207773
0.200939
0.205671
0.226418
0.232486
0.228002
0.213189
0.210497
0.223627
0.224302
0.217327
0.218606
0.234792
0.210258
0.234645
0.248185
0.258835
0.235599
0.233653
0.244288
0.239591
0.197893
0.231968
0.246096
0.237522
0.222762
0.230816
0.248848
0.249108
0.244644
0.218533
0.207236
0.220222
0.229147
0.239591
0.233607
0.23806
0.243197
0.234199
0.235459
0.261984
0.237458
0.22495
0.244104
0.258055
0.256042
0.24518
0.235465
0.244105
0.244105
0.207789
0.228915
0.265453
0.241807
0.216569
0.216035
0.203335
0.231298
0.247408
0.203792
0.197893
0.235465
0.253404
0.249204
0.223875
0.240154
0.225461
0.207282
0.209053
0.214983
0.211291
0.211617
0.229853
0.227691
0.225131
0.245849
0.226965
0.219726
0.221439
0.23077
0.223045
0.226466
0.231637
0.241111
0.227691
0.227377
0.227405
0.211976
0.214687
0.212165
0.217344
0.195269
0.187718
0.22431
0.238678
0.231595
0.212483
0.223933
0.23675
0.23675
0.239476
0.228923
0.242127
0.210082
0.225131
0.223933
0.238683
0.234541
0.245697
0.239046
0.229692
0.414298
0.265301
0.265807
0.229692
0.280235
0.352524
0.352524
0.557726
0.557726
0.464748
0.799578
0.742348
0.742348
0.656368
0.909988
0
0.841043
0.985093
0.894261
0.927362
0.954333
0.986055
0.81954
0.992703
0.955401
0.821887
0.944849
0.572084
0.985683
1
0.979435
0.707676
0.980072
0.922905
0.956127
0.87791
0.973064
0.801235
1
0
1
0.884292
0.89349
0.870321
0.879757
0.912355
0.94379
0.3685
0.517729
0.881506
0.915597
0.956017
0.915131
0.97579
0.909593
0.927346
1
0.798515
0.807376
0.550209
0.876981
0.874239
0.989161
0.959119
0.992305
0.934461
0.75096
0
0.760352
0.961089
0
0.815516
1
0.788457
0.882624
0.945491
0.894051
0.929614
0.918559
1
0.974056
0.999251
0.96293
0.811597
0.920987
1
0.910538
0.954985
0.886417
0
0.963167
0
0.246043
0.917046
0.974062
0.64302
0.90046
0.889913
0.870461
0.997512
0
0.967433
0.592892
0.940409
0.784819
1
0.882513
0.896443
0
0
0.896713
0
1
0.962479
1
0.843833
0
0.73929
0.73929
0
1
1
0
0.908702
0
0.908424
0
0.816611
0
0.811985
0.9184
0.893628
0.811985
0
1
0.976952
1
0.802016
0.84237
0.7355
0.780286
0.707848
0.77543
0.707848
1
0
0
0
0.956536
0.611729
1
0.528639
0.973724
0.973724
1
1
0.973724
0.901277
1
1
1
0
0.966851
0.966851
0
0.966851
1
0
0
0
0.945962
0
0
0
0.762898
1
1
0.934236
0
0.90247
1
0.857668
1
1
1
1
1
0.766257
0.766257
1
0.722091
0.722091
0.766257
1
0.905671
1
0.905671
0.872341
1
0.819709
0.885497
0.644621
0.644621
0.754851
0.899459
0.899459
0
0.728779
0.899459
0
0.764881
0.788637
0
0
0.756528
0
1
0.759406
0.824635
0.790021
0.790021
1
1
0
1
1
1
0
0
0
0
0.774441
0
0
1
0.86793
1
0.726779
0
0.726779
0
0
1
1
1
0
1
1
0
0.806817
0.806817
0.758451
0.822652
0.791298
0.791298
0.848466
0
1
0.848466
0
0.937212
0
1
1
0.773431
0.773431
0.893777
1
0.850007
1
1
0
0
1
0
1
0
0.931887
1
1
0
1
1
0
1
0.997862
0.997862
0
1
0.997862
1
1
0
1
1
0.803062
0.741956
0.692619
0.741956
1
0
0
0.692619
1
1
1
1
1
1
1
1
0.851078
0
0.611839
0
1
1
0
0
0
1
0
0.875623
0
0.828932
0.828565
0.83826
0.915064
0.886388
0.886388
1
0
0.915064
1
1
0.836485
0.979347
1
0.836485
0.9534
1
0.9534
1
1
1
1
1
1
1
1
0
1
1
1
1
1
1
0
1
0
1
0.903385
0.903385
0
0.903385
1
0
1
1
1
1
1
0.90014
0.90014
1
0.993516
0.993516
0.90014
1
0
0
0.824097
0.824097
0.993516
1
1
1
0
1
1
1
1
0
0.966133
0.966133
1
0.838849
0.966133
1
1
0
1
1
0
0
1
1
1
1
0
1
0
1
1
1
1
0
1
0.996213
0.996213
1
0.997491
0.986834
0.986834
0.996213
0
1
1
0.721112
0.721112
0.997491
0.986834
0
0
1
0.721112
0.841318
0
0.812399
0.812399
0
0
0
0.82066
1
1
0
0
0
1
0
1
1
1
0
0
1
1
1
1
0.988843
0.988843
0
1
1
1
1
1
0.988843
0.504129
0.504129
0.861837
1
1
0
0
0
0.861837
1
0
0
0.983327
0.983327
1
1
1
0
0
0.983327
0.600459
1
1
0.519995
0.519995
1
1
1
0
0
1
0.955359
0.955359
0
1
1
0.955359
0
0
0.881918
0
0.860984
0.860984
0
0
0
1
1
0
1
0
0.814011
0.814011
0.762372
1
1
0.814011
1
1
1
0
0
1
0.651016
0.651016
0
0
0
0
0.651016
0
0
0
0
0
0
0
1
0.81696
0.81696
0
1
0.81696
0.828703
1
0.904035
0.904035
0.828703
0
0
0.865318
0.865318
0.904035
0
0.839266
1
0
0
1
0
1
0
1
0
1
1
0.808352
1
1
0.875389
0.875389
1
1
0
0
1
0.974431
0.974431
1
1
0.974431
0
1
1
0
1
1
1
0.880431
1
0.792668
0.792668
1
1
0.85694
0.995044
0.995044
1
0
1
0.995044
0.736321
1
0.736321
0
0
1
0.826463
0.826463
0
0
1
0.826463
0.811145
0
0.865207
0.865207
1
1
0
1
1
1
0
0
1
1
1
0
1
1
0
0
0.924536
0.924536
1
0.741908
0.924536
0.73387
1
0
0.741908
0
0
0.92221
1
1
0.92221
1
0
0.934276
0.934276
0
0.905049
0.934276
0
0
0.91477
0.94556
0.94556
0.904132
0.904132
0.94556
1
0
0
1
0
0
0
0
1
0
0
1
0
0
0
1
1
0.839313
1
0.839313
0
1
1
1
0
0.989846
0.989846
0
1
1
1
0.949414
0.989846
1
1
1
0.986908
0
0
0
0
0.986908
0
1
1
1
1
0
1
1
0
1
0
1
1
0
0.817089
0
0
0
1
0
0
0
0
1
1
1
1
0.856344
1
0.856344
0
0.678588
0.856344
1
1
0
0.678588
0
0
1
1
1
0.731251
1
1
1
1
1
0.731251
0.996861
0.996861
0.927962
1
0.996861
0.927962
0.809484
0.809484
0
0.812628
0.812628
1
0.812628
0
1
1
0
0
0
1
0.96025
0
1
1
1
0
0.96025
1
0
0
0.786629
0.786629
1
0
0
0.786629
0.838098
0
1
0
0
0.838098
0
0
0
0
0
0
1
1
1
1
1
1
0
0.9365
0.9365
0
0
1
0.730677
1
0.730677
0.9365
0
0
0
0.788814
0.730677
1
1
1
1
1
0.788814
0
0
1
0
0
1
1
0
1
1
0.883957
0.883957
1
0
0.883957
0.761264
0.761264
1
1
1
1
1
0
1
1
1
1
1
1
0.742297
0.742297
1
1
0.777832
0.721819
0.742297
0.998017
0.998017
1
0
0
0
0.998017
0.996333
1
1
1
1
1
0.841582
0.841582
1
1
0.842159
0.842159
0.842159
0.841582
0.849254
0
0.842159
0.857158
0
0.787576
0.787576
0
0.93657
0.93657
0.846377
0
0.816421
0.93657
0.846377
0
0
1
0
0.983696
0.983696
1
0
1
0.983696
1
0
0
0
0
0
0.71496
0
0.843205
0.843205
0.86269
0.86269
1
0.843205
1
0
1
1
1
1
1
1
1
1
1
0
0
0.890159
0.890159
0.818155
0.900082
0.890159
0.818155
0.728316
0
0
1
0.900082
1
0
0
0.897712
0.897712
1
0
0
0.897712
0.435783
0.698492
1
1
0
0.816713
1
1
0.739239
0
0.726694
0.726694
1
1
1
0.902707
0
1
1
1
0
0
0
0.940708
0.940708
1
0
1
0.940708
0.9303
1
0.970555
0.98634
0.98634
0.872316
0.865083
0.865083
0.970555
0.98634
0.872316
0
0.745406
0.801177
1
1
0.745406
0.801177
1
1
0
0.960261
0.960261
0.983512
0.983512
1
0.783814
0.783814
0.721913
0.960261
0.983512
0.729084
0.729084
1
0.765088
0
0.985792
0.985792
0.78432
0.688029
0.688029
0.996664
0.985792
0
0.688029
0.623796
0.688508
0.37071
0.36461
0.371748
0.358797
0.361263
0.372909
0.358155
0.376837
0.362424
0.353754
0.36975
0.387548
0.383346
0.363536
0.365159
0.370583
0.352527
0.344164
0.368934
0.371625
0.375912
0.359263
0.367339
0.364906
0.362043
0.345031
0.374713
0.404736
0.37476
0.355438
0.37885
0.349598
0.358327
0.36175
0.36289
0.33937
0.386302
0.381678
0.355494
0.342625
0.381005
0.357134
0.375996
0.376431
0.368756
0.381303
0.365464
0.363904
0.370027
0.388308
0.357721
0.343112
0.367994
0.360895
0.359314
0.349823
0.36734
0.38032
0.364856
0.365656
0.36388
0.350987
0.374896
0.371258
0.35785
0.366291
0.365718
0.366419
0.376295
0.386239
0.36422
0.374179
0.389711
0.359861
0.338825
0.361914
0.38166
0.380176
0.372697
0.364141
0.363723
0.379708
0.373229
0.37072
0.363283
0.358457
0.364905
0.377538
0.368128
0.363869
0.352286
0.338366
0.365791
0.367467
0.366296
0.360274
0.36531
0.361745
0.372771
0.362831
0.382623
0.38468
0.36738
0.365274
0.363213
0.373006
0.36236
0.360583
0.379566
0.349637
0.352103
0.37436
0.371917
0.372383
0.369512
0.376252
0.384074
0.369322
0.360966
0.354869
0.376157
0.363577
0.372501
0.361757
0.356754
0.350672
0.35391
0.375012
0.365012
0.350288
0.352035
0.383845
0.367986
0.354973
0.365594
0.35533
0.394468
0.36133
0.345657
0.389843
0.373147
0.360183
0.363691
0.351255
0.360539
0.367907
0.362772
0.355662
0.369878
0.349902
0.358901
0.373984
0.377837
0.385662
0.356598
0.391997
0.364944
0.353939
0.36582
0.350964
0.356427
0.34843
0.372636
0.358924
0.376291
0.363461
0.362987
0.370415
0.36246
0.354531
0.346476
0.387603
0.37471
0.360717
0.376449
0.34821
0.359802
0.358258
0.352218
0.35467
0.364259
0.381474
0.388019
0.376384
0.369051
0.350771
0.357125
0.38338
0.357886
0.373705
0.384803
0.356739
0.363394
0.363307
0.365875
0.386459
0.359789
0.366296
0.355294
0.372733
0.376224
0.355994
0.357284
0.366458
0.368876
0.36695
0.379098
0.355857
0.357369
0.363694
0.376248
0.368223
0.36505
0.348611
0.353785
0.358811
0.363777
0.375108
0.356938
0.351587
0.365759
0.371348
0.374513
0.356598
0.376994
0.369259
0.357193
0.351117
0.370115
0.374121
0.365124
0.362424
0.374361
0.369036
0.37435
0.364766
0.358414
0.363091
0.364048
0.377415
0.367057
0.35099
0.364172
0.371525
0.35678
0.368032
0.377777
0.380182
0.361762
0.360982
0.359861
0.351844
0.372766
0.3835
0.372225
0.358674
0.366975
0.379066
0.373421
0.357817
0.364629
0.365313
0.340405
0.363636
0.388882
0.365976
0.374438
0.3486
0.349793
0.365342
0.373949
0.370283
0.381609
0.361239
0.360911
0.369566
0.380781
0.385782
0.360998
0.355313
0.369284
0.365355
0.361186
0.363472
0.380759
0.36018
0.366084
0.377501
0.389011
0.380147
0.353013
0.371538
0.36015
0.351792
0.367342
0.380336
0.367627
0.362275
0.368917
0.351198
0.352539
0.356109
0.376472
0.366475
0.375306
0.365217
0.356002
0.373012
0.365312
0.369962
0.398468
0.3781
0.375631
0.363161
0.353244
0.362125
0.38061
0.368115
0.359374
0.347789
0.390107
0.393689
0.385388
0.353538
0.341663
0.39326
0.375861
0.357261
0.384391
0.368952
0.353177
0.352318
0.372099
0.387344
0.364901
0.370282
0.367486
0.372346
0.362052
0.387648
0.338925
0.375369
0.359016
0.354717
0.351797
0.376114
0.371655
0.374605
0.38456
0.369452
0.357158
0.349297
0.361444
0.375034
0.387226
0.36602
0.372691
0.356829
0.369954
0.359666
0.379472
0.373321
0.384748
0.385114
0.348717
0.345841
0.360417
0.350805
0.37975
0.360489
0.368068
0.390395
0.374256
0.352978
0.358669
0.3649
0.374168
0.361435
0.371194
0.368215
0.367113
0.361946
0.341844
0.349979
0.348329
0.371146
0.371825
0.373859
0.359652
0.370743
0.38795
0.371492
0.349965
0.368297
0.379795
0.378097
0.365439
0.365092
0.372454
0.353913
0.363281
0.377207
0.364018
0.373831
0.366076
0.357634
0.372018
0.392068
0.352493
0.367269
0.373497
0.384394
0.37436
0.366011
0.378964
0.341522
0.361134
0.386731
0.379554
0.382661
0.363704
0.3701
0.374692
0.364709
0.361922
0.357016
0.374026
0.361048
0.349248
0.355475
0.368773
0.385735
0.364393
0.360088
0.3754
0.369689
0.369271
0.376868
0.353136
0.354535
0.360482
0.38461
0.371503
0.358515
0.377362
0.358011
0.361996
0.34494
0.381981
0.374744
0.368338
0.359851
0.369921
0.356676
0.37578
0.373171
0.365299
0.35256
0.352979
0.362795
0.377855
0.359947
0.358304
0.37603
0.363461
0.365275
0.375409
0.361762
0.357319
0.367574
0.367053
0.374752
0.369353
0.367014
0.360274
0.35851
0.371936
0.374267
0.375395
0.385527
0.337684
0.363242
0.374651
0.405583
0.372613
0.360431
0.378148
0.361096
0.366379
0.364663
0.374591
0.374861
0.357211
0.350905
0.376448
0.365786
0.365774
0.367024
0.381743
0.369663
0.361632
0.366637
0.376859
0.356687
0.366657
0.348833
0.369515
0.367804
0.376003
0.375323
0.361197
0.369507
0.350792
0.360258
0.370181
0.374104
0.374771
0.364025
0.342128
0.34848
0.371426
0.350994
0.375859
0.369104
0.362085
0.373345
0.37378
0.354669
0.357711
0.375938
0.372194
0.394109
0.359809
0.355971
0.351118
0.368537
0.35051
0.386535
0.371796
0.350775
0.359067
0.367974
0.368278
0.375075
0.386869
0.369024
0.361625
0.36954
0.362995
0.375163
0.353005
0.348804
0.37659
0.364943
0.354073
0.36759
0.358229
0.381304
0.361335
0.359862
0.364385
0.380784
0.38751
0.362399
0.357828
0.373493
0.372644
0.35137
0.382734
0.389286
0.382904
0.370752
0.368423
0.351858
0.345622
0.374048
0.379295
0.371087
0.362527
0.366075
0.350602
0.36901
0.361225
0.368946
0.384248
0.383832
0.36072
0.345817
0.367616
0.354717
0.36722
0.370133
0.365838
0.358441
0.365611
0.365172
0.382278
0.384315
0.354974
0.362779
0.347972
0.372353
0.390746
0.368442
0.361813
0.371586
0.366157
0.360329
0.378732
0.383638
0.353852
0.371212
0.361415
0.340011
0.380901
0.358456
0.364519
0.354975
0.363313
0.372025
0.389092
0.374417
0.351618
0.364351
0.372031
0.368764
0.361507
0.36288
0.379676
0.354786
0.37771
0.3666
0.360224
0.353973
0.365293
0.362301
0.370948
0.385435
0.356126
0.354852
0.364418
0.391385
0.361811
0.353738
0.358338
0.365587
0.371678
0.366459
0.372684
0.389913
0.368219
0.354039
0.35752
0.360227
0.385251
0.375169
0.398599
0.372639
0.350811
0.345826
0.353731
0.37428
0.351685
0.369545
0.355624
0.354405
0.376703
0.372181
0.352684
0.343227
0.356736
0.344747
0.367048
0.388348
0.391574
0.380968
0.349984
0.365647
0.37998
0.375085
0.359006
0.365105
0.368944
0.358424
0.377148
0.37003
0.36725
0.364897
0.366098
0.368109
0.363482
0.365214
0.353996
0.35021
0.347669
0.344157
0.388402
0.393009
0.373185
0.35505
0.374987
0.357926
0.358976
0.361958
0.367252
0.360632
0.351884
0.372458
0.371265
0.378435
0.361615
0.373687
0.390282
0.359825
0.373788
0.36231
0.38026
0.369714
0.338195
0.37263
0.369721
0.36422
0.378748
0.368062
0.351814
0.356585
0.358783
0.363628
0.360037
0.353488
0.346296
0.384744
0.373837
0.3738
0.364873
0.368015
0.351052
0.373853
0.373414
0.37444
0.378119
0.375545
0.363022
0.366667
0.38485
0.354279
0.348348
0.352568
0.386839
0.366756
0.359058
0.352299
0.368294
0.374787
0.375157
0.354145
0.368024
0.357357
0.370222
0.377411
0.37517
0.365742
0.360808
0.376855
0.379117
0.367524
0.35837
0.389645
0.375975
0.359674
0.346119
0.377992
0.391307
0.381795
0.35923
0.361788
0.357942
0.363867
0.350052
0.357086
0.372146
0.383979
0.367521
0.362491
0.386415
0.389492
0.356033
0.350826
0.344965
0.337632
0.349116
0.376952
0.387316
0.386511
0.347758
0.356299
0.369136
0.349476
0.373406
0.363436
0.352429
0.377807
0.355048
0.363906
0.375793
0.382008
0.374612
0.36477
0.354424
0.360172
0.376777
0.371493
0.362289
0.362541
0.37733
0.373411
0.377629
0.370199
0.367521
0.368476
0.35916
0.365117
0.365959
0.359128
0.383554
0.372093
0.353643
0.3662
0.353196
0.366972
0.377517
0.366645
0.348062
0.351553
0.371795
0.371357
0.366984
0.356385
0.378022
0.375059
0.370081
0.341713
0.359955
0.356532
0.366686
0.378836
0.352929
0.348934
0.365204
0.37196
0.361713
0.366688
0.359055
0.364822
0.378231
0.371971
0.365462
0.345893
0.350388
0.386838
0.368546
0.363506
0.381016
0.345297
0.344996
0.389815
0.370667
0.366613
0.353092
0.365931
0.372904
0.374555
0.373415
0.385825
0.36526
0.344637
0.368308
0.367216
0.363035
0.368859
0.367196
0.37926
0.351927
0.371027
0.365225
0.369122
0.362993
0.37118
0.3544
0.358006
0.37558
0.382458
0.36974
0.368419
0.352801
0.378558
0.3729
0.352272
0.364305
0.370292
0.373742
0.354753
0.381575
0.384471
0.372324
0.370659
0.36501
0.363188
0.362793
0.368526
0.37581
0.361588
0.335404
0.365857
0.384343
0.386389
0.364624
0.371027
0.365605
0.341587
0.357239
0.370364
0.365169
0.371094
0.356024
0.37049
0.363272
0.377247
0.342814
0.353839
0.372568
0.360285
0.354194
0.373317
0.347015
0.36501
0.372977
0.376082
0.359179
0.369187
0.369626
0.352586
0.353902
0.386501
0.383865
0.363435
0.370729
0.379878
0.356616
0.356395
0.346158
0.366512
0.355393
0.375497
0.356635
0.379919
0.377028
0.375855
0.374225
0.387231
0.380149
0.344855
0.369398
0.366599
0.362532
0.384293
0.35554
0.369407
0.370617
0.384497
0.376224
0.357931
0.358839
0.375682
0.352405
0.359461
0.374136
0.363521
0.382927
0.363619
0.373045
0.374959
0.366468
0.374081
0.348931
0.357482
0.381721
0.381907
0.360096
0.357475
0.370248
0.384839
0.377308
0.37582
0.355001
0.353498
0.384776
0.380598
0.352933
0.346354
0.351483
0.357363
0.371373
0.366463
0.382681
0.36572
0.37184
0.357293
0.347557
0.360913
0.369617
0.368225
0.376201
0.367469
0.36682
0.372699
0.374313
0.354369
0.360934
0.381493
0.373758
0.358985
0.368399
0.384867
0.369488
0.359694
0.350747
0.347638
0.380795
0.375586
0.371072
0.370641
0.379191
0.356642
0.359159
0.369579
0.345814
0.356953
0.375557
0.362617
0.349615
0.36358
0.359549
0.378676
0.35024
0.36081
0.367121
0.361664
0.393075
0.37571
0.357805
0.352821
0.365745
0.378639
0.366638
0.362233
0.355529
0.383605
0.390346
0.339097
0.371191
0.345881
0.366502
0.378335
0.377471
0.366147
0.364178
0.368054
0.321748
0.36987
0.371608
0.378851
0.371046
0.385873
0.375555
0.376469
0.368625
0.374337
0.358667
0.361013
0.351003
0.342404
0.361342
0.381105
0.358584
0.364356
0.364242
0.386766
0.354521
0.372195
0.35699
0.372298
0.375225
0.372641
0.369322
0.362026
0.331826
0.361767
0.369503
0.370756
0.3775
0.366178
0.350861
0.375155
0.385543
0.373815
0.374851
0.372882
0.356137
0.379636
0.372132
0.345956
0.348003
0.369743
0.361089
0.36106
0.378222
0.354203
0.356841
0.368504
0.360697
0.359056
0.356252
0.37381
0.359922
0.359901
0.371116
0.361883
0.355636
0.380496
0.366676
0.376121
0.370913
0.366131
0.389311
0.363853
0.358646
0.366231
0.378187
0.351072
0.350728
0.365452
0.378248
0.387939
0.360241
0.376201
0.374433
0.343373
0.365986
0.353582
0.375538
0.361904
0.367598
0.367051
0.376369
0.36626
0.358319
0.347738
0.37653
0.363559
0.379059
0.374989
0.351827
0.36629
0.366919
0.360889
0.3592
0.355133
0.364176
0.362922
0.360236
0.380061
0.357005
0.360855
0.362053
0.366773
0.380798
0.366642
0.360962
0.348878
0.363716
0.400385
0.379465
0.366562
0.34173
0.373351
0.391438
0.369073
0.355063
0.364493
0.348948
0.364099
0.376957
0.353157
0.377242
0.379513
0.368352
0.365073
0.372931
0.367035
0.372431
0.373139
0.354983
0.36492
0.357294
0.356592
0.362134
0.375869
0.388629
0.37075
0.378341
0.375051
0.355033
0.366676
0.353335
0.359502
0.372914
0.373434
0.366495
0.38805
0.356403
0.35576
0.363306
0.369381
0.354855
0.358574
0.374203
0.362552
0.361842
0.351421
0.382217
0.36447
0.370114
0.360994
0.384927
0.353184
0.36808
0.362799
0.372832
0.379116
0.377523
0.361503
0.353579
0.370819
0.370196
0.381536
0.344021
0.363026
0.383659
0.372246
0.370479
0.379924
0.350121
0.359353
0.371502
0.387492
0.368865
0.362841
0.382034
0.351614
0.375609
0.365325
0.356391
0.375352
0.372576
0.364431
0.363808
0.362513
0.376669
0.351672
0.378636
0.361308
0.359844
0.379288
0.376234
0.34106
0.368648
0.378745
0.350627
0.358113
0.358628
0.381713
0.36234
0.358241
0.381384
0.361845
0.347765
0.367402
0.392219
0.36186
0.361955
0.376701
0.365622
0.359682
0.356961
0.379402
0.369246
0.367534
0.368354
0.376545
0.365431
0.376558
0.357177
0.358543
0.356988
0.363205
0.358756
0.369046
0.371673
0.357122
0.368804
0.363148
0.382217
0.355704
0.342829
0.366397
0.383841
0.374023
0.371705
0.357615
0.371778
0.359894
0.366763
0.360268
0.371819
0.363988
0.367528
0.382967
0.368429
0.345713
0.366223
0.366873
0.37071
SCALARS Coverage1 float 1
LOOKUP_TABLE default
0.183557
0.183557
0.191265
0.189077
0.188145
0.187366
0.186301
0.170489
0.161083
0.180455
0.18758
0.180172
0.190927
0.195226
0.186725
0.19923
0.17918
0.178003
0.191584
0.199821