# vtk DataFile Version 2.0
2D Surface
ASCII
DATASET UNSTRUCTURED_GRID
POINTS 2851 float
7.25772e-05 -3.258e-05 0. 
7.263e-05 -3.25857e-05 0. 
7.272e-05 -3.25838e-05 0. 
7.281e-05 -3.25813e-05 0. 
7.29e-05 -3.25866e-05 0. 
7.299e-05 -3.25855e-05 0. 
7.308e-05 -3.25844e-05 0. 
7.3139e-05 -3.258e-05 0. 
7.34538e-05 -3.258e-05 0. 
7.353e-05 -3.25852e-05 0. 
7.362e-05 -3.25849e-05 0. 
7.371e-05 -3.25824e-05 0. 
7.37498e-05 -3.258e-05 0. 
7.45991e-05 -3.258e-05 0. 
7.461e-05 -3.2581e-05 0. 
7.47e-05 -3.25835e-05 0. 
7.47528e-05 -3.258e-05 0. 
7.01138e-05 -3.249e-05 0. 
7.02e-05 -3.2494e-05 0. 
7.029e-05 -3.24965e-05 0. 
7.038e-05 -3.24994e-05 0. 
7.047e-05 -3.25054e-05 0. 
7.056e-05 -3.25057e-05 0. 
7.065e-05 -3.25036e-05 0. 
7.074e-05 -3.25027e-05 0. 
7.083e-05 -3.2511e-05 0. 
7.092e-05 -3.25166e-05 0. 
7.101e-05 -3.25252e-05 0. 
7.11e-05 -3.25265e-05 0. 
7.119e-05 -3.25302e-05 0. 
7.128e-05 -3.25345e-05 0. 
7.137e-05 -3.25337e-05 0. 
7.146e-05 -3.25363e-05 0. 
7.155e-05 -3.25399e-05 0. 
7.164e-05 -3.25395e-05 0. 
7.173e-05 -3.25475e-05 0. 
7.182e-05 -3.25521e-05 0. 
7.191e-05 -3.2554e-05 0. 
7.2e-05 -3.25539e-05 0. 
7.209e-05 -3.25562e-05 0. 
7.218e-05 -3.25582e-05 0. 
7.227e-05 -3.25679e-05 0. 
7.236e-05 -3.25773e-05 0. 
7.245e-05 -3.25769e-05 0. 
7.254e-05 -3.2576e-05 0. 
7.317e-05 -3.25777e-05 0. 
7.326e-05 -3.25738e-05 0. 
7.335e-05 -3.257e-05 0. 
7.344e-05 -3.25791e-05 0. 
7.38e-05 -3.2577e-05 0. 
7.389e-05 -3.25714e-05 0. 
7.398e-05 -3.25683e-05 0. 
7.407e-05 -3.25722e-05 0. 
7.416e-05 -3.25742e-05 0. 
7.425e-05 -3.25797e-05 0. 
7.434e-05 -3.25795e-05 0. 
7.443e-05 -3.2569e-05 0. 
7.452e-05 -3.25725e-05 0. 
7.479e-05 -3.25775e-05 0. 
7.488e-05 -3.25757e-05 0. 
7.497e-05 -3.25774e-05 0. 
7.506e-05 -3.25799e-05 0. 
7.515e-05 -3.25786e-05 0. 
7.524e-05 -3.25738e-05 0. 
7.533e-05 -3.25634e-05 0. 
7.542e-05 -3.25668e-05 0. 
7.551e-05 -3.25662e-05 0. 
7.56e-05 -3.25674e-05 0. 
7.569e-05 -3.25618e-05 0. 
7.578e-05 -3.25742e-05 0. 
7.587e-05 -3.25709e-05 0. 
7.596e-05 -3.25681e-05 0. 
7.605e-05 -3.25712e-05 0. 
7.614e-05 -3.25699e-05 0. 
7.623e-05 -3.25752e-05 0. 
7.632e-05 -3.25757e-05 0. 
7.641e-05 -3.25718e-05 0. 
7.65e-05 -3.25662e-05 0. 
7.659e-05 -3.25621e-05 0. 
7.668e-05 -3.25579e-05 0. 
7.677e-05 -3.25621e-05 0. 
7.686e-05 -3.2569e-05 0. 
7.695e-05 -3.25665e-05 0. 
7.704e-05 -3.25609e-05 0. 
7.713e-05 -3.256e-05 0. 
7.722e-05 -3.25614e-05 0. 
7.731e-05 -3.25555e-05 0. 
7.74e-05 -3.25557e-05 0. 
7.749e-05 -3.25571e-05 0. 
7.758e-05 -3.25533e-05 0. 
7.767e-05 -3.25528e-05 0. 
7.776e-05 -3.25537e-05 0. 
7.785e-05 -3.2558e-05 0. 
7.794e-05 -3.25623e-05 0. 
7.803e-05 -3.25596e-05 0. 
7.812e-05 -3.25582e-05 0. 
7.821e-05 -3.25562e-05 0. 
7.83e-05 -3.25577e-05 0. 
7.839e-05 -3.25569e-05 0. 
7.848e-05 -3.25539e-05 0. 
7.857e-05 -3.25508e-05 0. 
7.866e-05 -3.25514e-05 0. 
7.875e-05 -3.25548e-05 0. 
7.884e-05 -3.25534e-05 0. 
7.893e-05 -3.25508e-05 0. 
7.902e-05 -3.25535e-05 0. 
7.911e-05 -3.25488e-05 0. 
7.92e-05 -3.25497e-05 0. 
7.929e-05 -3.25473e-05 0. 
7.938e-05 -3.25413e-05 0. 
7.947e-05 -3.25374e-05 0. 
7.956e-05 -3.25311e-05 0. 
7.965e-05 -3.25297e-05 0. 
7.974e-05 -3.25261e-05 0. 
7.983e-05 -3.25206e-05 0. 
7.992e-05 -3.25117e-05 0. 
8.001e-05 -3.25095e-05 0. 
8.01e-05 -3.2506e-05 0. 
8.019e-05 -3.24962e-05 0. 
8.028e-05 -3.24932e-05 0. 
8.03185e-05 -3.249e-05 0. 
6.78807e-05 -3.24e-05 0. 
6.795e-05 -3.24056e-05 0. 
6.804e-05 -3.24034e-05 0. 
6.813e-05 -3.24099e-05 0. 
6.822e-05 -3.24134e-05 0. 
6.831e-05 -3.24113e-05 0. 
6.84e-05 -3.2418e-05 0. 
6.849e-05 -3.24223e-05 0. 
6.858e-05 -3.24273e-05 0. 
6.867e-05 -3.24331e-05 0. 
6.876e-05 -3.24309e-05 0. 
6.885e-05 -3.24337e-05 0. 
6.894e-05 -3.24382e-05 0. 
6.903e-05 -3.24369e-05 0. 
6.912e-05 -3.24448e-05 0. 
6.921e-05 -3.24547e-05 0. 
6.93e-05 -3.24615e-05 0. 
6.939e-05 -3.24631e-05 0. 
6.948e-05 -3.2468e-05 0. 
6.957e-05 -3.24645e-05 0. 
6.966e-05 -3.24578e-05 0. 
6.975e-05 -3.24611e-05 0. 
6.984e-05 -3.24679e-05 0. 
6.993e-05 -3.24766e-05 0. 
7.002e-05 -3.2482e-05 0. 
7.011e-05 -3.24898e-05 0. 
8.037e-05 -3.24857e-05 0. 
8.046e-05 -3.24836e-05 0. 
8.055e-05 -3.24784e-05 0. 
8.064e-05 -3.24663e-05 0. 
8.073e-05 -3.24615e-05 0. 
8.082e-05 -3.24603e-05 0. 
8.091e-05 -3.24509e-05 0. 
8.1e-05 -3.24518e-05 0. 
8.109e-05 -3.24503e-05 0. 
8.118e-05 -3.24495e-05 0. 
8.127e-05 -3.24434e-05 0. 
8.136e-05 -3.2434e-05 0. 
8.145e-05 -3.24305e-05 0. 
8.154e-05 -3.24318e-05 0. 
8.163e-05 -3.24273e-05 0. 
8.172e-05 -3.2425e-05 0. 
8.181e-05 -3.24215e-05 0. 
8.19e-05 -3.24149e-05 0. 
8.199e-05 -3.24102e-05 0. 
8.208e-05 -3.2402e-05 0. 
8.21037e-05 -3.24e-05 0. 
6.63083e-05 -3.231e-05 0. 
6.633e-05 -3.23117e-05 0. 
6.642e-05 -3.23203e-05 0. 
6.651e-05 -3.23329e-05 0. 
6.66e-05 -3.23403e-05 0. 
6.669e-05 -3.23472e-05 0. 
6.678e-05 -3.23502e-05 0. 
6.687e-05 -3.23508e-05 0. 
6.696e-05 -3.23519e-05 0. 
6.705e-05 -3.23565e-05 0. 
6.714e-05 -3.23519e-05 0. 
6.723e-05 -3.23655e-05 0. 
6.732e-05 -3.23753e-05 0. 
6.741e-05 -3.23738e-05 0. 
6.75e-05 -3.23798e-05 0. 
6.759e-05 -3.23836e-05 0. 
6.768e-05 -3.23895e-05 0. 
6.777e-05 -3.23915e-05 0. 
6.786e-05 -3.23983e-05 0. 
8.217e-05 -3.23945e-05 0. 
8.226e-05 -3.23899e-05 0. 
8.235e-05 -3.23859e-05 0. 
8.244e-05 -3.23814e-05 0. 
8.253e-05 -3.23715e-05 0. 
8.262e-05 -3.2373e-05 0. 
8.271e-05 -3.23661e-05 0. 
8.28e-05 -3.23629e-05 0. 
8.289e-05 -3.23565e-05 0. 
8.298e-05 -3.23533e-05 0. 
8.307e-05 -3.2357e-05 0. 
8.316e-05 -3.23519e-05 0. 
8.325e-05 -3.23418e-05 0. 
8.334e-05 -3.2344e-05 0. 
8.343e-05 -3.23398e-05 0. 
8.352e-05 -3.23368e-05 0. 
8.361e-05 -3.23274e-05 0. 
8.37e-05 -3.23207e-05 0. 
8.379e-05 -3.23149e-05 0. 
8.3841e-05 -3.231e-05 0. 
6.48841e-05 -3.222e-05 0. 
6.489e-05 -3.22204e-05 0. 
6.498e-05 -3.22248e-05 0. 
6.507e-05 -3.22298e-05 0. 
6.516e-05 -3.22377e-05 0. 
6.525e-05 -3.22484e-05 0. 
6.534e-05 -3.2256e-05 0. 
6.543e-05 -3.22626e-05 0. 
6.552e-05 -3.22736e-05 0. 
6.561e-05 -3.22728e-05 0. 
6.57e-05 -3.22748e-05 0. 
6.579e-05 -3.2283e-05 0. 
6.588e-05 -3.22898e-05 0. 
6.597e-05 -3.22894e-05 0. 
6.606e-05 -3.22959e-05 0. 
6.615e-05 -3.23006e-05 0. 
6.624e-05 -3.23048e-05 0. 
8.388e-05 -3.23063e-05 0. 
8.397e-05 -3.22987e-05 0. 
8.406e-05 -3.22937e-05 0. 
8.415e-05 -3.22882e-05 0. 
8.424e-05 -3.2286e-05 0. 
8.433e-05 -3.22817e-05 0. 
8.442e-05 -3.2279e-05 0. 
8.451e-05 -3.22763e-05 0. 
8.46e-05 -3.22676e-05 0. 
8.469e-05 -3.22586e-05 0. 
8.478e-05 -3.22532e-05 0. 
8.487e-05 -3.22482e-05 0. 
8.496e-05 -3.22398e-05 0. 
8.505e-05 -3.22288e-05 0. 
8.514e-05 -3.22233e-05 0. 
8.51765e-05 -3.222e-05 0. 
6.33904e-05 -3.213e-05 0. 
6.345e-05 -3.21371e-05 0. 
6.354e-05 -3.21469e-05 0. 
6.363e-05 -3.21562e-05 0. 
6.372e-05 -3.21621e-05 0. 
6.381e-05 -3.21671e-05 0. 
6.39e-05 -3.21722e-05 0. 
6.399e-05 -3.2177e-05 0. 
6.408e-05 -3.21773e-05 0. 
6.417e-05 -3.21828e-05 0. 
6.426e-05 -3.21946e-05 0. 
6.435e-05 -3.22018e-05 0. 
6.444e-05 -3.2205e-05 0. 
6.453e-05 -3.2203e-05 0. 
6.462e-05 -3.22055e-05 0. 
6.471e-05 -3.22085e-05 0. 
6.48e-05 -3.22142e-05 0. 
8.523e-05 -3.22152e-05 0. 
8.532e-05 -3.2206e-05 0. 
8.541e-05 -3.2197e-05 0. 
8.55e-05 -3.21914e-05 0. 
8.559e-05 -3.21825e-05 0. 
8.568e-05 -3.21716e-05 0. 
8.577e-05 -3.21654e-05 0. 
8.586e-05 -3.2158e-05 0. 
8.595e-05 -3.21531e-05 0. 
8.604e-05 -3.21446e-05 0. 
8.613e-05 -3.21449e-05 0. 
8.622e-05 -3.21417e-05 0. 
8.631e-05 -3.21324e-05 0. 
8.63323e-05 -3.213e-05 0. 
6.24536e-05 -3.204e-05 0. 
6.246e-05 -3.2041e-05 0. 
6.255e-05 -3.20496e-05 0. 
6.264e-05 -3.20582e-05 0. 
6.273e-05 -3.20687e-05 0. 
6.282e-05 -3.20785e-05 0. 
6.291e-05 -3.20845e-05 0. 
6.3e-05 -3.20938e-05 0. 
6.309e-05 -3.21031e-05 0. 
6.318e-05 -3.2115e-05 0. 
6.327e-05 -3.21229e-05 0. 
6.336e-05 -3.21264e-05 0. 
8.64e-05 -3.21226e-05 0. 
8.649e-05 -3.21192e-05 0. 
8.658e-05 -3.21076e-05 0. 
8.667e-05 -3.20946e-05 0. 
8.676e-05 -3.20882e-05 0. 
8.685e-05 -3.20827e-05 0. 
8.694e-05 -3.20738e-05 0. 
8.703e-05 -3.20657e-05 0. 
8.712e-05 -3.20602e-05 0. 
8.721e-05 -3.20501e-05 0. 
8.73e-05 -3.20401e-05 0. 
8.73006e-05 -3.204e-05 0. 
6.18981e-05 -3.195e-05 0. 
6.192e-05 -3.19603e-05 0. 
6.201e-05 -3.19681e-05 0. 
6.21e-05 -3.19953e-05 0. 
6.219e-05 -3.20027e-05 0. 
6.228e-05 -3.20146e-05 0. 
6.237e-05 -3.20268e-05 0. 
8.739e-05 -3.2031e-05 0. 
8.748e-05 -3.20211e-05 0. 
8.757e-05 -3.20118e-05 0. 
8.766e-05 -3.19976e-05 0. 
8.775e-05 -3.19881e-05 0. 
8.784e-05 -3.19701e-05 0. 
8.793e-05 -3.19558e-05 0. 
8.79496e-05 -3.195e-05 0. 
6.16817e-05 -3.186e-05 0. 
6.174e-05 -3.19176e-05 0. 
6.183e-05 -3.19179e-05 0. 
8.802e-05 -3.19293e-05 0. 
8.811e-05 -3.19191e-05 0. 
8.82e-05 -3.18734e-05 0. 
8.829e-05 -3.18739e-05 0. 
8.83039e-05 -3.186e-05 0. 
6.16021e-05 -3.177e-05 0. 
6.165e-05 -3.18245e-05 0. 
8.838e-05 -3.17809e-05 0. 
8.83905e-05 -3.177e-05 0. 
6.15751e-05 -3.168e-05 0. 
8.84252e-05 -3.168e-05 0. 
6.15699e-05 -3.159e-05 0. 
8.84255e-05 -3.159e-05 0. 
6.15713e-05 -3.15e-05 0. 
8.8426e-05 -3.15e-05 0. 
6.15673e-05 -3.141e-05 0. 
8.84263e-05 -3.141e-05 0. 
6.15674e-05 -3.132e-05 0. 
8.84275e-05 -3.132e-05 0. 
6.15654e-05 -3.123e-05 0. 
8.84276e-05 -3.123e-05 0. 
6.15651e-05 -3.114e-05 0. 
8.84225e-05 -3.114e-05 0. 
6.15637e-05 -3.105e-05 0. 
8.84269e-05 -3.105e-05 0. 
6.15614e-05 -3.096e-05 0. 
8.84275e-05 -3.096e-05 0. 
6.15596e-05 -3.087e-05 0. 
6.156e-05 -3.08907e-05 0. 
8.84269e-05 -3.087e-05 0. 
6.15599e-05 -3.078e-05 0. 
8.84281e-05 -3.078e-05 0. 
6.156e-05 -3.07751e-05 0. 
6.15611e-05 -3.069e-05 0. 
8.84282e-05 -3.069e-05 0. 
6.15612e-05 -3.06e-05 0. 
8.84267e-05 -3.06e-05 0. 
6.15565e-05 -3.051e-05 0. 
6.156e-05 -3.05778e-05 0. 
8.84311e-05 -3.051e-05 0. 
6.15544e-05 -3.042e-05 0. 
8.8433e-05 -3.042e-05 0. 
6.15542e-05 -3.033e-05 0. 
8.84347e-05 -3.033e-05 0. 
6.156e-05 -3.02521e-05 0. 
6.15609e-05 -3.024e-05 0. 
8.84393e-05 -3.024e-05 0. 
6.15571e-05 -3.015e-05 0. 
6.156e-05 -3.02182e-05 0. 
8.84411e-05 -3.015e-05 0. 
6.1557e-05 -3.006e-05 0. 
8.84344e-05 -3.006e-05 0. 
6.15541e-05 -2.997e-05 0. 
8.84392e-05 -2.997e-05 0. 
6.15555e-05 -2.988e-05 0. 
8.84396e-05 -2.988e-05 0. 
6.15538e-05 -2.979e-05 0. 
[...]
POINT_DATA 2851
SCALARS Coverage0 float 1
LOOKUP_TABLE default
0.234358
0.221335
0.218222
0.189539
0.199366
0.251632
0.227616
0.235537
0.201205
0.245515
0.240232
0.24216
0.24216
0.221261
0.221261
0.201807
0.220957
0.194995
0.206637
0.230702
0.239678
0.23209
0.212271
0.225309
0.226065
0.215754
0.22228
0.237457
0.23528
0.234385
0.211793
0.212529
0.21781
0.200792
0.209405
0.239336
0.259827
0.252617
0.246882
0.218412
0.217031
0.22793
0.252593
0.242565
0.234358
0.235537
0.237088
0.21636
0.201205
0.227558
0.23033
0.225298
0.214346
0.232102
0.215981
0.217642
0.234429
0.240264
0.220957
0.220887
0.231954
0.241219
0.240774
0.262569
0.2577
0.217045
0.21842
0.235704
0.231292
0.232316
0.234571
0.239235
0.249428
0.237247
0.223536
0.232691
0.244333
0.231306
0.20238
0.204209
0.217031
0.231154
0.220363
0.226687
0.240463
0.218395
0.236473
0.232682
0.212618
0.209673
0.223439
0.222265
0.209318
0.205289
0.24138
0.219883
0.206068
0.223937
0.238337
0.228382
0.206214
0.203867
0.210405
0.204868
0.22636
0.23804
0.21054
0.19375
0.225966
0.214643
0.208335
0.202469
0.206257
0.220885
0.262706
0.265071
0.26277
0.241767
0.273074
0.253395
0.253395
0.220643
0.21377
0.208756
0.222603
0.219128
0.221207
0.242587
0.232409
0.218257
0.228906
0.225882
0.250541
0.240087
0.210839
0.229737
0.234329
0.217176
0.23003
0.223104
0.228449
0.219512
0.227591
0.22988
0.239117
0.242079
0.194995
0.227077
0.241063
0.25908
0.22671
0.235989
0.228868
0.234638
0.215013
0.202899
0.209879
0.240714
0.206092
0.205396
0.205547
0.215847
0.226666
0.234536
0.230198
0.213996
0.223398
0.223398
0.249317
0.249317
0.238417
0.253036
0.214999
0.209622
0.231476
0.21939
0.233534
0.218828
0.218461
0.179248
0.216087
0.232578
0.199919
0.220612
0.194885
0.199148
0.220643
0.215229
0.215187
0.215654
0.229889
0.256756
0.211177
0.202014
0.240716
0.231897
0.221514
0.244675
0.244336
0.208292
0.216461
0.203574
0.204664
0.205764
0.2232
0.220582
0.228149
0.207628
0.207628
0.205993
0.211958
0.213513
0.226865
0.203863
0.219239
0.213999
0.226341
0.214865
0.213547
0.227146
0.250452
0.231262
0.229854
0.242442
0.228149
0.235309
0.212819
0.218277
0.199905
0.196348
0.209906
0.221231
0.233461
0.202723
0.214672
0.217749
0.211186
0.25382
0.248275
0.248275
0.206512
0.211243
0.216272
0.200145
0.205578
0.207798
0.200345
0.199732
0.191251
0.199829
0.215209
0.223398
0.244417
0.235598
0.216277
0.214515
0.210956
0.213353
0.195934
0.218843
0.205412
0.227016
0.23058
0.218321
0.231545
0.226539
0.223205
0.210584
0.20722
0.201471
0.201471
0.199873
0.199873
0.191032
0.21149
0.242684
0.220939
0.181341
0.206126
0.19587
0.206748
0.211573
0.206512
0.231067
0.208137
0.223963
0.214503
0.205513
0.216231
0.202442
0.224099
0.213998
0.208676
0.213246
0.213246
0.26073
0.26073
0.214201
0.206044
0.204407
0.200861
0.209593
0.221976
0.184964
0.179716
0.200182
0.214081
0.210866
0.210065
0.210065
0.331856
0.28522
0.271899
0.228168
0.266103
0.263486
0.308368
0.308368
0.48795
0.331856
0.43404
0.43404
0.690901
0.742774
0.94597
0.848507
0.871195
0.804256
0.923449
0.894098
0.957677
0.992777
0.933297
0.679725
0.937372
0.899421
0.883029
0.870038
0.841987
0.953972
0.964367
0.964367
0.974114
0.659253
0.938206
0.659253
0.78927
0.873101
0.796762
0.791661
0.882497
0.796762
0.885974
0.810302
0.889468
0
0.835697
0.597293
0.597293
0.774612
0.766802
0.597293
0
0.66495
0.96655
0.973509
0.774583
0.924656
0.669746
0.978081
0.95821
0.996935
0.992931
0.987407
0.869572
0.753663
0.762011
0.804412
0
0.850788
0.999363
0.91163
0.910697
0.998522
0.978834
1
0.84181
0.966752
0.717882
0.759446
0
0.833422
0.838164
0.849471
0.951865
0.870707
0.65312
0
0.812749
0.843727
0.87162
0.86665
0.871112
0.991183
1
0.976307
0
0.918464
0.918459
0.917672
0.988431
0.987981
0.885964
0.842726
0.910108
0.780708
0.997767
0.966422
0.987283
0.982655
0.917814
0.986575
0.93781
1
0.728555
0
1
1
0.891397
0.981286
0.804742
0.935695
0.503423
0.760794
0.839894
0
0.887587
0.929612
0.777306
0.777306
0.905682
0.777306
0.65661
0
0.65661
1
0.886926
0.876503
0.876503
0.778375
0.876503
0.764927
0.993488
1
0.699564
0.814115
0.691924
1
1
0.691924
0.986703
0.986703
0
0.986703
0.817585
1
0.764184
0
0.794739
0
1
0.571628
0
1
1
0.724307
0
0.870954
0.890694
0.890283
0.878803
1
0.830557
0
1
0
0
1
0.940601
1
0
0
0
1
1
0
1
0.571317
0.865886
0.884836
0.831083
0.891136
0
0.798695
0.792906
0
0.873306
0.923437
0.962174
0.962174
0.928005
0.740137
0.999014
0.825386
1
1
0.998571
1
0.818863
1
0.775719
0
0.799581
1
0.819647
0.876071
0.876071
0.819647
1
0.932216
0.876071
1
1
0.999696
0.803433
0.794687
0.931276
0.931276
0
1
1
0.94032
1
0
0.695645
0
0.734683
1
0.887268
1
1
1
1
1
1
1
1
0.84906
1
0.843779
1
1
0.857491
1
0.857491
1
0.860336
1
0.691503
1
0
0
0.700249
0.700249
0.839309
0.839309
0.62398
0.754075
0.839309
0
0
0
0.754075
1
1
0.776315
0.776315
1
1
0
0.776315
0
0
0.774344
0
0
0
0
0.774344
0.716224
0
0
0.716224
0
1
0.993097
0.993097
1
1
0.993097
0
0
1
1
1
1
1
1
0
1
1
1
0
0
0
0
1
0.933119
0
0.870246
0
0
0
0.870246
0
0
0
0.995401
0.995401
1
0.885318
0.885096
0.995401
0
0
1
0
0
0
0
0
0.996164
0.995963
0.856956
0.577507
0.577507
0.996164
0.935472
0.577507
0.836482
0.935472
1
0.598867
0.598867
1
0.608784
0
1
1
0
0.900026
1
0
0.827352
0.827352
0.433219
0.433219
0.794285
0
0
0.433219
0
1
0
0
0
1
1
1
1
0.587094
0.587094
1
1
0
0.587094
1
0
0.855913
0.855913
1
0.855913
1
1
1
0
0
0
1
0
0.764621
0
0.790275
0.790275
0.871579
0.871579
0.846756
0.871579
0.937036
0.813586
0.937036
1
0
0.813586
0.817834
0.881802
1
1
0
0
0.817834
0.805306
0.805306
0.880631
0
0.827169
0
0
1
1
0
1
0
1
0.878323
0.878323
0
0.878323
0
1
0
0
1
0
0.828178
0.828178
1
0
0.828178
0
0
1
0
1
0.798383
0.941524
0.941524
0.769567
0.941524
1
0
1
1
1
0
0
0
0
0
0
0
0
0
0.893174
1
0.893174
0.775607
1
0.622276
0.622276
0
1
1
0.622276
1
0.818073
0.818073
0.73473
0.90289
0.83305
0.83305
0.864731
1
1
0
1
0.864731
0.888114
0
0.999126
0.999126
0.999126
0.888114
0.767237
0
0.999126
0.799311
0
0
0
0
0
0
0
0
0
0
1
0
0
0
0
0
0
1
0
1
0
0.837834
0.837834
1
0.837834
0
1
0
0
0
0
0
0.869694
0.869694
0
0.961394
0.961394
0.869694
0
1
1
0.991547
0.906256
0.961394
0
0
0
1
0
0
0
0
1
0.983869
0.983869
0
0.828527
0.983869
0.991433
0
1
1
0.991433
1
1
0
0
0
0
1
0
1
0
0
0
0
1
0
0.965632
0.965632
0
0.998181
0.971072
0.971072
0.965632
1
0
0
0.75928
0.75928
0.998181
0.971072
1
1
0
0.75928
0.590665
0.940919
0.940919
0.777623
0.777623
0.940919
1
1
1
0.795288
0
0
1
1
1
0
1
0
0
0
1
1
0
0
0
0
0.91921
0.91921
0
0
0
0
0
0
0.91921
0.914566
0.914566
0.633254
0
1
1
1
1
0.633254
0
1
1
0.860103
0.860103
0
0
0
1
1
0.860103
0.831635
0
0
0.870084
0.870084
0
0
0
1
1
0
0.951709
0.951709
1
0
0
0.951709
1
1
0
0.716142
1
0.713928
0.716142
1
1
1
0
0
0
1
0
1
0.998772
0.998772
0.869241
0
0
0.998772
0
0
0
1
1
0
0.991535
0.824234
0.824234
1
1
1
1
0.805812
0.991535
0.824234
1
1
1
1
0.805812
1
1
1
0
0.944387
0.944387
0
0
0.944387
0.910916
0
1
0.910916
1
1
0.86397
1
0.891764
0
1
1
1
0
1
0
1
0
1
0
0
0.852341
0
0
0.879658
0.879658
0
0
1
1
0
0.980663
0.980663
0
0
0.980663
1
0
0
1
0
0
0
0.975498
0.975498
0
0.691124
0.691124
0.975498
0
0
0.705945
0.955012
0.955012
1
1
0
0.955012
0.820722
0
0.820722
1
1
0
0.966091
0.966091
1
1
0
0.966091
0.811448
1
0.814613
0.814613
0
0
1
0
0
0
1
1
0
0
0
1
0
0
1
1
0.911497
0.911497
0
0.791292
0.911497
0.716822
0.716822
1
0.791292
1
1
0.887369
0
0
0.887369
0
1
0.650648
0.650648
1
0.950878
0.650648
1
1
0.874668
0.65455
0.65455
0.923009
0.923009
0.65455
0
1
1
0
1
1
1
1
0
1
1
0
1
1
1
0
0
0.843016
0
0.843016
1
0
0
0
0
0.997253
0.997253
1
0
0
0
0.691459
0.997253
0
0
0
0.828964
1
1
1
1
0.828964
1
0
0
0
0
1
0
0
1
0
1
0
0
1
0
0.788438
1
1
1
0
1
0.788438
1
1
1
0
0
0
0.563861
0.996468
0.996468
1
0.812994
0.812994
0.563861
0.996468
0
0
1
1
1
0
0
0
0.731066
0
0
0
0
0
0.731066
0.990421
0.990421
0
0
0.990421
0.705956
0.828396
1
0.890186
0
0.755429
0
0
0.755429
1
1
1
0
0.725275
1
0
0
0
1
0.725275
0
1
1
0.775568
0.775568
0
1
1
0.775568
1
1
1
0.998655
0.998655
1
1
1
1
1
1
0.998655
0
0
0
0
0
0
1
0
0
1
1
0
0.618347
0
0.618347
0
1
1
1
0.91569
0.618347
0
0
0
0
0
0.91569
1
1
0
1
1
0
0
1
0
0
0.979254
0.979254
0.795074
0
1
0.979254
0.795074
0.829424
0
0
0.829424
1
0
0
1
0
0
0
0
0
0
0.965692
0.965692
0
0
0.606369
0.816059
0.965692
0.403859
0.403859
0
1
1
1
0.403859
0.997088
0
0
0
0
0
0.717199
0.717199
0
0
0
0.717199
0.30892
0.81999
1
0.853385
1
0.923878
0.923878
1
0.985037
0.985037
0.751011
0.874065
1
0.866616
0.985037
0.874065
1
0
1
0.851898
0.851898
0.992988
1
0
0.851898
0.992988
0.874688
1
0.813309
0.813309
1
0.843442
1
0.807364
0.807364
1
0
0.807364
0.982668
0.982668
0
0
0
0.982668
0.806618
0.806618
0
0
1
1
0.995826
0.995826
1
0.900535
0.932875
0.995826
0.859531
0.859531
1
1
0
0.932875
0
1
1
1
1
1
0.837326
0
0
1
0.916004
0
0
1
1
1
0
1
1
0.999881
0
1
0.848171
1
1
0
0.915672
1
0
0.850881
0
0.993582
0.885026
0.885026
0.801451
0.858368
0.858368
0.993582
0.885026
0.801451
1
0.827623
0.785179
0
0
0.827623
0.785179
0
0
1
0.97532
0.97532
0.844651
0.844651
0
0.835885
0.835885
0.479159
0.97532
0.844651
0.696917
0.696917
0
0.829933
1
0.914608
0.914608
0.886083
0.619534
0.619534
0.341223
0.914608
1
0.619534
0.671938
0.654975
0.361542
0.363883
0.368239
0.376062
0.358416
0.366897
0.381539
0.352625
0.358309
0.368426
0.366961
0.358076
0.383848
0.361054
0.370908
0.354528
0.35234
0.373339
0.36729
0.364797
0.374846
0.379194
0.354133
0.36318
0.367864
0.360203
0.361398
0.356991
0.364511
0.372999
0.365577
0.360749
0.366916
0.362456
0.366723
0.359759
0.362747
0.372783
0.363102
0.353372
0.350554
0.370013
0.353895
0.371473
0.368279
0.366124
0.372121
0.355889
0.379776
0.370615
0.37167
0.35106
0.383732
0.372161
0.36232
0.376238
0.353533
0.3465
0.374979
0.374801
0.36767
0.375878
0.376654
0.358872
0.369493
0.360505
0.352454
0.372725
0.36696
0.362754
0.383448
0.367994
0.365862
0.358051
0.356728
0.365312
0.363325
0.37232
0.367184
0.382642
0.3573
0.361725
0.346266
0.355779
0.359682
0.379284
0.371969
0.376462
0.376574
0.375582
0.379413
0.376216
0.359854
0.355192
0.348092
0.350847
0.382881
0.379523
0.355433
0.367111
0.368493
0.368378
0.379709
0.36629
0.369436
0.35632
0.369494
0.36064
0.370725
0.361931
0.375774
0.352496
0.369201
0.349114
0.379016
0.355565
0.361177
0.385538
0.380787
0.365779
0.360695
0.365002
0.372434
0.363733
0.358549
0.370583
0.371493
0.367624
0.343645
0.373346
0.372253
0.368336
0.363529
0.371978
0.334757
0.361978
0.379727
0.36958
0.361888
0.364884
0.381359
0.380052
0.365181
0.344925
0.352506
0.348091
0.358143
0.376216
0.373482
0.36894
0.372632
0.35639
0.35994
0.369541
0.373448
0.370735
0.345385
0.346327
0.368637
0.37216
0.387003
0.382046
0.34986
0.35626
0.357738
0.370967
0.345755
0.367842
0.36662
0.365614
0.378476
0.362557
0.364634
0.354801
0.379382
0.362253
0.363691
0.37555
0.362313
0.350928
0.360832
0.372937
0.353023
0.356946
0.363506
0.383539
0.37023
0.355601
0.342073
0.361667
0.385474
0.381275
0.390653
0.369858
0.371168
0.377217
0.36825
0.354295
0.359278
0.373093
0.364371
0.37034
0.368632
0.356329
0.368413
0.369844
0.377007
0.361046
0.360596
0.361336
0.365496
0.383951
0.387993
0.369263
0.357601
0.3672
0.381462
0.371068
0.366142
0.373793
0.363147
0.368556
0.356613
0.376189
0.363039
0.389383
0.355189
0.350157
0.37672
0.360384
0.34079
0.348627
0.385876
0.375277
0.355794
0.3619
0.387917
0.359403
0.359717
0.364487
0.371239
0.35263
0.356139
0.372054
0.367699
0.376284
0.386432
0.381321
0.354889
0.371351
0.36293
0.385798
0.368437
0.371369
0.343258
0.337883
0.360564
0.365614
0.358772
0.364874
0.379999
0.362002
0.361001
0.375053
0.37447
0.355973
0.364451
0.373184
0.358075
0.361455
0.369633
0.372724
0.384997
0.375222
0.354436
0.353589
0.362928
0.35871
0.371744
0.370095
0.376391
0.365779
0.361734
0.358829
0.36197
0.345417
0.359088
0.385161
0.36885
0.360743
0.375945
0.368173
0.373202
0.389182
0.371222
0.367662
0.348277
0.344616
0.373956
0.349649
0.372265
0.367553
0.36058
0.370041
0.364672
0.38427
0.360541
0.345859
0.383133
0.379658
0.377889
0.37086
0.379306
0.366433
0.370372
0.373995
0.364517
0.344299
0.356021
0.352804
0.376318
0.353031
0.362103
0.37219
0.359439
0.353804
0.378017
0.37765
0.360897
0.35942
0.343196
0.368636
0.382694
0.376941
0.37445
0.366445
0.363256
0.35966
0.339966
0.375792
0.368372
0.375835
0.381228
0.348952
0.349406
0.369306
0.377302
0.362254
0.351628
0.380509
0.379922
0.371932
0.368836
0.358855
0.38269
0.378117
0.352163
0.352888
0.348158
0.367815
0.379175
0.364421
0.361677
0.365715
0.363272
0.36226
0.35601
0.368282
0.371718
0.357398
0.365486
0.378129
0.36671
0.375891
0.380048
0.368562
0.356633
0.371767
0.371521
0.365945
0.364731
0.359331
0.371054
0.366072
0.357458
0.35856
0.357033
0.363176
0.357977
0.364645
0.363673
0.356992
0.37105
0.381036
0.398953
0.383283
0.371439
0.369396
0.372944
0.385208
0.367093
0.378733
0.364965
0.373855
0.384928
0.360529
0.356649
0.352307
0.365286
0.373365
0.369483
0.361906
0.365848
0.384463
0.381666
0.363471
0.363461
0.36685
0.37592
0.351598
0.331967
0.373546
0.365356
0.371833
0.354349
0.364501
0.374058
0.366551
0.349944
0.362999
0.357905
0.383739
0.365122
0.36557
0.370582
0.386887
0.355266
0.367947
0.370735
0.37374
0.37525
0.370965
0.366827
0.363342
0.3869
0.367589
0.353403
0.354442
0.367399
0.367071
0.371898
0.381966
0.382965
0.357748
0.370099
0.368906
0.360394
0.358956
0.360558
0.373653
0.363664
0.354492
0.361865
0.345883
0.36516
0.362702
0.374834
0.371778
0.356316
0.348453
0.377055
0.36653
0.357286
0.371634
0.354574
0.374339
0.362087
0.366088
0.370596
0.370205
0.391189
0.376956
0.358664
0.362234
0.36944
0.37325
0.367611
0.366913
0.367898
0.350818
0.360293
0.365763
0.365519
0.381002
0.386232
0.376199
0.350982
0.363638
0.380762
0.373669
0.347536
0.364577
0.363922
0.35174
0.368384
0.370661
0.352818
0.351903
0.373074
0.384845
0.38417
0.360268
0.350876
0.359805
0.368211
0.36741
0.370885
0.368263
0.386341
0.386676
0.37413
0.351031
0.36422
0.350717
0.380965
0.379324
0.367352
0.374368
0.372794
0.368278
0.369845
0.369748
0.364568
0.37572
0.360368
0.385802
0.380393
0.370136
0.359173
0.367316
0.354763
0.368074
0.368138
0.349595
0.370525
0.365878
0.379555
0.381315
0.346918
0.352378
0.359983
0.362899
0.377056
0.334609
0.349495
0.380473
0.390301
0.372305
0.353982
0.356153
0.370434
0.370455
0.368299
0.376419
0.343741
0.361641
0.374222
0.376652
0.363298
0.359023
0.353213
0.390202
0.36722
0.346445
0.34215
0.375061
0.374342
0.365897
0.36201
0.367868
0.364833
0.363749
0.362125
0.387746
0.377303
0.375197
0.360841
0.359731
0.348026
0.35705
0.390563
0.376349
0.370148
0.362861
0.364022
0.353222
0.362281
0.37928
0.373128
0.376052
0.395216
0.360944
0.337681
0.373767
0.375066
0.338472
0.356477
0.362572
0.36381
0.364897
0.36833
0.387935
0.375047
0.351076
0.348197
0.362767
0.383174
0.374982
0.360906
0.374631
0.37445
0.365194
0.365405
0.363333
0.368465
0.369992
0.377084
0.366756
0.366979
0.378554
0.366595
0.360564
0.364065
0.352044
0.363854
0.363451
0.380355
0.36215
0.364649
0.369473
0.371625
0.37963
0.370643
0.379688
0.363085
0.361795
0.365326
0.351941
0.367505
0.380361
0.362643
0.370518
0.354367
0.356038
0.373009
0.381162
0.368681
0.359672
0.354954
0.339217
0.360705
0.381811
0.367374
0.375948
0.352764
0.362318
0.356317
0.386445
0.378894
0.362708
0.372298
0.344471
0.370898
0.362605
0.359324
0.382412
0.355263
0.358206
0.363386
0.36564
0.380438
0.372024
0.36883
0.38055
0.367806
0.371738
0.359242
0.354639
0.360929
0.385349
0.369035
0.364825
0.349574
0.35586
0.372794
0.362564
0.369929
0.351256
0.363665
0.368364
0.354965
0.362451
0.374427
0.345435
0.368704
0.36399
0.362239
0.365696
0.364273
0.373546
0.385927
0.366964
0.345277
0.363916
0.390381
0.361128
0.354753
0.375231
0.36176
0.35253
0.367059
0.359814
0.362238
0.371305
0.384069
0.353957
0.346766
0.332681
0.37885
0.386639
0.355524
0.364253
0.376236
0.367002
0.376471
0.362498
0.36002
0.381236
0.374398
0.366233
0.358203
0.359656
0.356992
0.375155
0.370207
0.358948
0.368013
0.37157
0.367358
0.367031
0.381602
0.373045
0.36774
0.366535
0.36175
0.37484
0.361603
0.379589
0.361987
0.350683
0.370284
0.377689
0.383484
0.359351
0.363509
0.35466
0.356864
0.375824
0.389758
0.356303
0.348932
0.36685
0.363874
0.358474
0.375636
0.364097
0.366563
0.378048
0.385046
0.346358
0.36815
0.366995
0.3693
0.342166
0.371286
0.368969
0.364375
0.36755
0.372277
0.344925
0.358795
0.36879
0.353447
0.369371
0.368658
0.36464
0.37818
0.393991
0.357707
0.370496
0.355386
0.360117
0.392534
0.368451
0.355729
0.359471
0.358269
0.370267
0.391201
0.360195
0.372166
0.360241
0.359081
0.376329
0.352889
0.348181
0.369898
0.377785
0.362652
0.350331
0.358802
0.364634
0.364788
0.355603
0.387195
0.354437
0.362226
0.365208
0.371038
0.365614
0.377442
0.366496
0.36055
0.371983
0.365738
0.356963
0.366903
0.378243
0.352739
0.376592
0.355385
0.358799
0.377466
0.381988
0.352679
0.370015
0.353083
0.38181
0.367754
0.355512
0.351628
0.362879
0.367944
0.358565
0.37142
0.367828
0.365042
0.378569
0.366997
0.359504
0.353716
0.394262
0.390823
0.372642
0.365557
0.350334
0.348966
0.355144
0.368316
0.361447
0.376385
0.368435
0.373413
0.363636
0.364312
0.352234
0.357082
0.359851
0.367783
0.359711
0.346304
0.352696
0.376838
0.366899
0.355135
0.356987
0.371456
0.377941
0.36284
0.36161
0.354327
0.373178
0.361897
0.374336
0.374476
0.369452
0.361257
0.377133
0.369786
0.350827
0.372615
0.37072
0.378446
0.381799
0.37796
0.367138
0.35755
0.372367
0.371988
0.365873
0.386488
0.383863
0.347518
0.36168
0.362466
0.378617
0.373096
0.358804
0.359825
0.36463
0.388811
0.361847
0.359467
0.354382
0.357093
0.371537
0.379465
0.360123
0.373256
0.35699
0.353084
0.359091
0.374007
0.3796
0.370989
0.354916
0.371157
0.370201
0.362958
0.371263
0.361858
0.367007
0.358554
0.361473
0.370922
0.36744
0.372251
0.355311
0.353994
0.345913
0.359667
0.377134
0.375392
0.362365
0.365931
0.376545
0.383008
0.347712
0.378601
0.386258
0.358595
0.363158
0.372764
0.365019
0.376868
0.368587
0.355726
0.359432
0.376835
0.384631
0.364088
0.354068
0.368833
0.35781
0.370789
0.371668
0.380921
0.367975
0.369163
0.363811
0.359473
0.362848
0.358067
0.347541
0.346472
0.357504
0.382167
0.359568
0.365152
0.379224
0.363704
0.360398
0.370671
0.358366
0.362859
0.394095
0.344515
0.363755
0.361652
0.368352
0.362508
0.391168
0.379724
0.367033
0.348167
0.360056
0.376081
0.359829
0.371735
0.370147
0.366802
0.361848
0.368184
0.372436
0.350674
0.377989
0.384421
0.348958
0.377263
0.359309
0.349859
0.368403
0.378191
0.361919
0.368422
0.368898
0.367032
0.3436
0.36164
0.377069
0.382358
0.374755
0.362579
0.356459
0.382409
0.377355
0.338969
0.346284
0.358085
0.383003
0.38158
0.372185
0.376489
0.368773
0.356015
0.36516
0.364654
0.350311
0.369008
0.369944
0.359141
0.351942
0.360561
0.379372
0.389021
0.36738
0.363536
0.375578
0.360381
0.359054
0.356293
0.372294
0.367014
0.347268
0.362214
0.362606
0.368485
0.35981
0.365514
0.35444
0.370067
0.368658
0.380639
0.370859
0.357084
0.34758
0.370335
0.368169
0.377308
0.372297
0.36673
0.346968
0.353059
0.359785
0.362055
0.373102
0.368659
0.361978
0.379497
0.367844
0.376569
0.359487
0.360069
0.365289
0.362344
0.366819
0.368673
0.374785
0.371435
0.364404
0.387917
0.356313
0.358682
0.354427
0.358187
0.374053
0.362558
0.37434
0.369788
0.352815
0.35839
0.366416
0.3822
0.359542
0.368912
0.367308
0.360437
0.367527
0.363638
0.375505
0.353185
0.360428
0.368403
0.367209
0.364748
0.364003
0.358156
0.369851
0.365351
0.381959
0.357416
0.38106
0.373416
0.349302
0.362027
0.35287
0.370581
0.382106
0.37052
0.341483
0.375627
0.375859
0.364976
0.376273
0.355368
0.363257
0.358395
0.366633
0.362591
0.373212
0.351171
0.374582
0.339994
0.372379
0.381527
0.370398
0.377403
0.372888
0.362163
0.370975
0.375029
0.380323
0.360493
0.363206
0.361843
0.356842
0.366166
0.381176
0.356594
0.376203
0.368129
0.376126
0.372675
0.361275
0.358882
0.355405
0.370134
0.360208
0.377691
0.378495
0.369102
0.358939
0.349943
0.350866
0.350715
0.364492
0.374063
0.373382
0.363869
0.391971
0.376336
0.371957
0.369644
0.34854
0.356039
0.377737
0.372813
0.352698
0.362759
0.356137
0.371101
0.372376
0.356438
0.35394
0.378609
0.391173
0.363159
0.366474
0.373202
0.359822
0.348199
0.353077
0.367081
0.364191
0.358067
0.37109
0.365935
0.364623
0.385921
0.382764
0.379253
0.366609
0.355806
0.381369
0.357128
0.369698
0.347204
0.349011
0.343358
0.350314
0.360746
0.374019
0.368674
0.37452
0.352942
0.360776
0.379543
0.367919
0.363417
0.366877