# vtk DataFile Version 2.0
2D Surface
ASCII
DATASET UNSTRUCTURED_GRID
POINTS 3175 float
7.05464e-05 -4.104e-05 0. 
7.056e-05 -4.10417e-05 0. 
7.065e-05 -4.10496e-05 0. 
7.074e-05 -4.10529e-05 0. 
7.083e-05 -4.10527e-05 0. 
7.092e-05 -4.10537e-05 0. 
7.101e-05 -4.10557e-05 0. 
7.11e-05 -4.10566e-05 0. 
7.119e-05 -4.1063e-05 0. 
7.128e-05 -4.10655e-05 0. 
7.137e-05 -4.10712e-05 0. 
7.146e-05 -4.10723e-05 0. 
7.155e-05 -4.108e-05 0. 
7.164e-05 -4.1083e-05 0. 
7.173e-05 -4.10803e-05 0. 
7.182e-05 -4.10771e-05 0. 
7.191e-05 -4.10832e-05 0. 
7.2e-05 -4.10791e-05 0. 
7.209e-05 -4.10816e-05 0. 
7.218e-05 -4.10817e-05 0. 
7.227e-05 -4.1074e-05 0. 
7.236e-05 -4.10837e-05 0. 
7.245e-05 -4.10842e-05 0. 
7.254e-05 -4.10846e-05 0. 
7.263e-05 -4.10797e-05 0. 
7.272e-05 -4.10801e-05 0. 
7.281e-05 -4.10817e-05 0. 
7.29e-05 -4.10828e-05 0. 
7.299e-05 -4.10833e-05 0. 
7.308e-05 -4.1089e-05 0. 
7.317e-05 -4.1095e-05 0. 
7.326e-05 -4.10984e-05 0. 
7.335e-05 -4.10907e-05 0. 
7.344e-05 -4.10866e-05 0. 
7.353e-05 -4.1086e-05 0. 
7.362e-05 -4.10878e-05 0. 
7.371e-05 -4.10867e-05 0. 
7.38e-05 -4.10822e-05 0. 
7.389e-05 -4.10842e-05 0. 
7.398e-05 -4.10787e-05 0. 
7.407e-05 -4.10758e-05 0. 
7.416e-05 -4.10767e-05 0. 
7.425e-05 -4.10779e-05 0. 
7.434e-05 -4.1081e-05 0. 
7.443e-05 -4.10856e-05 0. 
7.452e-05 -4.10771e-05 0. 
7.461e-05 -4.10854e-05 0. 
7.47e-05 -4.10866e-05 0. 
7.479e-05 -4.1086e-05 0. 
7.488e-05 -4.10735e-05 0. 
7.497e-05 -4.10882e-05 0. 
7.506e-05 -4.10874e-05 0. 
7.515e-05 -4.10821e-05 0. 
7.524e-05 -4.10851e-05 0. 
7.533e-05 -4.10922e-05 0. 
7.542e-05 -4.10857e-05 0. 
7.551e-05 -4.10882e-05 0. 
7.56e-05 -4.10917e-05 0. 
7.569e-05 -4.10938e-05 0. 
7.578e-05 -4.1092e-05 0. 
7.587e-05 -4.10844e-05 0. 
7.596e-05 -4.10865e-05 0. 
7.605e-05 -4.10867e-05 0. 
7.614e-05 -4.10833e-05 0. 
7.623e-05 -4.10774e-05 0. 
7.632e-05 -4.10774e-05 0. 
7.641e-05 -4.10737e-05 0. 
7.65e-05 -4.10716e-05 0. 
7.659e-05 -4.10785e-05 0. 
7.668e-05 -4.10786e-05 0. 
7.677e-05 -4.10702e-05 0. 
7.686e-05 -4.10666e-05 0. 
7.695e-05 -4.10698e-05 0. 
7.704e-05 -4.10704e-05 0. 
7.713e-05 -4.10712e-05 0. 
7.722e-05 -4.1074e-05 0. 
7.731e-05 -4.10668e-05 0. 
7.74e-05 -4.10653e-05 0. 
7.749e-05 -4.10684e-05 0. 
7.758e-05 -4.106e-05 0. 
7.767e-05 -4.10565e-05 0. 
7.776e-05 -4.10605e-05 0. 
7.785e-05 -4.10548e-05 0. 
7.794e-05 -4.10506e-05 0. 
7.803e-05 -4.10461e-05 0. 
7.812e-05 -4.1042e-05 0. 
7.821e-05 -4.10423e-05 0. 
7.8232e-05 -4.104e-05 0. 
7.91998e-05 -4.104e-05 0. 
7.92e-05 -4.104e-05 0. 
7.929e-05 -4.10406e-05 0. 
7.938e-05 -4.10447e-05 0. 
7.947e-05 -4.10418e-05 0. 
7.9501e-05 -4.104e-05 0. 
6.88373e-05 -4.095e-05 0. 
6.885e-05 -4.09508e-05 0. 
6.894e-05 -4.09534e-05 0. 
6.903e-05 -4.09559e-05 0. 
6.912e-05 -4.0958e-05 0. 
6.921e-05 -4.09623e-05 0. 
6.93e-05 -4.09686e-05 0. 
6.939e-05 -4.09785e-05 0. 
6.948e-05 -4.0983e-05 0. 
6.957e-05 -4.09837e-05 0. 
6.966e-05 -4.09796e-05 0. 
6.975e-05 -4.09865e-05 0. 
6.984e-05 -4.09932e-05 0. 
6.993e-05 -4.10045e-05 0. 
7.002e-05 -4.10026e-05 0. 
7.011e-05 -4.10062e-05 0. 
7.02e-05 -4.10111e-05 0. 
7.029e-05 -4.10177e-05 0. 
7.038e-05 -4.10272e-05 0. 
7.047e-05 -4.10304e-05 0. 
7.83e-05 -4.10328e-05 0. 
7.839e-05 -4.1036e-05 0. 
7.848e-05 -4.10373e-05 0. 
7.857e-05 -4.10367e-05 0. 
7.866e-05 -4.10336e-05 0. 
7.875e-05 -4.10367e-05 0. 
7.884e-05 -4.10336e-05 0. 
7.893e-05 -4.10264e-05 0. 
7.902e-05 -4.10332e-05 0. 
7.911e-05 -4.10353e-05 0. 
7.956e-05 -4.10366e-05 0. 
7.965e-05 -4.10388e-05 0. 
7.974e-05 -4.10366e-05 0. 
7.983e-05 -4.1033e-05 0. 
7.992e-05 -4.1026e-05 0. 
8.001e-05 -4.10201e-05 0. 
8.01e-05 -4.10198e-05 0. 
8.019e-05 -4.10163e-05 0. 
8.028e-05 -4.10195e-05 0. 
8.037e-05 -4.1025e-05 0. 
8.046e-05 -4.10246e-05 0. 
8.055e-05 -4.10171e-05 0. 
8.064e-05 -4.10153e-05 0. 
8.073e-05 -4.10167e-05 0. 
8.082e-05 -4.10097e-05 0. 
8.091e-05 -4.09988e-05 0. 
8.1e-05 -4.09966e-05 0. 
8.109e-05 -4.09935e-05 0. 
8.118e-05 -4.09961e-05 0. 
8.127e-05 -4.09986e-05 0. 
8.136e-05 -4.09881e-05 0. 
8.145e-05 -4.09811e-05 0. 
8.154e-05 -4.09774e-05 0. 
8.163e-05 -4.09714e-05 0. 
8.172e-05 -4.09668e-05 0. 
8.181e-05 -4.09585e-05 0. 
8.19e-05 -4.096e-05 0. 
8.199e-05 -4.09563e-05 0. 
8.20479e-05 -4.095e-05 0. 
6.70187e-05 -4.086e-05 0. 
6.705e-05 -4.08633e-05 0. 
6.714e-05 -4.08632e-05 0. 
6.723e-05 -4.0867e-05 0. 
6.732e-05 -4.08781e-05 0. 
6.741e-05 -4.08799e-05 0. 
6.75e-05 -4.08819e-05 0. 
6.759e-05 -4.08869e-05 0. 
6.768e-05 -4.08995e-05 0. 
6.777e-05 -4.09022e-05 0. 
6.786e-05 -4.09027e-05 0. 
6.795e-05 -4.09071e-05 0. 
6.804e-05 -4.09169e-05 0. 
6.813e-05 -4.09216e-05 0. 
6.822e-05 -4.09246e-05 0. 
6.831e-05 -4.09313e-05 0. 
6.84e-05 -4.09324e-05 0. 
6.849e-05 -4.093e-05 0. 
6.858e-05 -4.09318e-05 0. 
6.867e-05 -4.09384e-05 0. 
6.876e-05 -4.09451e-05 0. 
8.208e-05 -4.09465e-05 0. 
8.217e-05 -4.09478e-05 0. 
8.226e-05 -4.09481e-05 0. 
8.235e-05 -4.0935e-05 0. 
8.244e-05 -4.09283e-05 0. 
8.253e-05 -4.09253e-05 0. 
8.262e-05 -4.09187e-05 0. 
8.271e-05 -4.0919e-05 0. 
8.28e-05 -4.0915e-05 0. 
8.289e-05 -4.09083e-05 0. 
8.298e-05 -4.08974e-05 0. 
8.307e-05 -4.08944e-05 0. 
8.316e-05 -4.089e-05 0. 
8.325e-05 -4.08858e-05 0. 
8.334e-05 -4.08758e-05 0. 
8.343e-05 -4.08672e-05 0. 
8.352e-05 -4.08615e-05 0. 
8.35306e-05 -4.086e-05 0. 
6.50105e-05 -4.077e-05 0. 
6.507e-05 -4.07719e-05 0. 
6.516e-05 -4.07713e-05 0. 
6.525e-05 -4.07763e-05 0. 
6.534e-05 -4.07822e-05 0. 
6.543e-05 -4.0782e-05 0. 
6.552e-05 -4.07852e-05 0. 
6.561e-05 -4.07936e-05 0. 
6.57e-05 -4.08025e-05 0. 
6.579e-05 -4.08073e-05 0. 
6.588e-05 -4.08134e-05 0. 
6.597e-05 -4.08134e-05 0. 
6.606e-05 -4.08164e-05 0. 
6.615e-05 -4.08275e-05 0. 
6.624e-05 -4.08307e-05 0. 
6.633e-05 -4.08307e-05 0. 
6.642e-05 -4.08352e-05 0. 
6.651e-05 -4.08402e-05 0. 
6.66e-05 -4.08327e-05 0. 
6.669e-05 -4.08486e-05 0. 
6.678e-05 -4.08486e-05 0. 
6.687e-05 -4.08495e-05 0. 
6.696e-05 -4.08537e-05 0. 
8.361e-05 -4.08484e-05 0. 
8.37e-05 -4.08368e-05 0. 
8.379e-05 -4.08324e-05 0. 
8.388e-05 -4.08301e-05 0. 
8.397e-05 -4.08253e-05 0. 
8.406e-05 -4.08189e-05 0. 
8.415e-05 -4.08159e-05 0. 
8.424e-05 -4.08109e-05 0. 
8.433e-05 -4.08026e-05 0. 
8.442e-05 -4.07934e-05 0. 
8.451e-05 -4.07883e-05 0. 
8.46e-05 -4.07812e-05 0. 
8.469e-05 -4.07809e-05 0. 
8.478e-05 -4.07805e-05 0. 
8.487e-05 -4.078e-05 0. 
8.496e-05 -4.0775e-05 0. 
8.50045e-05 -4.077e-05 0. 
6.37722e-05 -4.068e-05 0. 
6.381e-05 -4.06827e-05 0. 
6.39e-05 -4.06866e-05 0. 
6.399e-05 -4.06895e-05 0. 
6.408e-05 -4.06942e-05 0. 
6.417e-05 -4.06992e-05 0. 
6.426e-05 -4.07083e-05 0. 
6.435e-05 -4.07235e-05 0. 
6.444e-05 -4.07355e-05 0. 
6.453e-05 -4.07444e-05 0. 
6.462e-05 -4.07523e-05 0. 
6.471e-05 -4.07587e-05 0. 
6.48e-05 -4.07611e-05 0. 
6.489e-05 -4.07666e-05 0. 
6.498e-05 -4.0769e-05 0. 
8.505e-05 -4.07649e-05 0. 
8.514e-05 -4.07559e-05 0. 
8.523e-05 -4.07497e-05 0. 
8.532e-05 -4.07437e-05 0. 
8.541e-05 -4.07287e-05 0. 
8.55e-05 -4.07208e-05 0. 
8.559e-05 -4.07215e-05 0. 
8.568e-05 -4.07159e-05 0. 
8.577e-05 -4.07057e-05 0. 
8.586e-05 -4.07016e-05 0. 
8.595e-05 -4.0697e-05 0. 
8.604e-05 -4.06949e-05 0. 
8.613e-05 -4.06802e-05 0. 
8.61314e-05 -4.068e-05 0. 
6.2933e-05 -4.059e-05 0. 
6.3e-05 -4.05987e-05 0. 
6.309e-05 -4.06144e-05 0. 
6.318e-05 -4.0623e-05 0. 
6.327e-05 -4.06283e-05 0. 
6.336e-05 -4.06385e-05 0. 
6.345e-05 -4.06485e-05 0. 
6.354e-05 -4.066e-05 0. 
6.363e-05 -4.067e-05 0. 
6.372e-05 -4.06763e-05 0. 
8.622e-05 -4.06662e-05 0. 
8.631e-05 -4.06653e-05 0. 
8.64e-05 -4.06637e-05 0. 
8.649e-05 -4.06605e-05 0. 
8.658e-05 -4.06563e-05 0. 
8.667e-05 -4.06485e-05 0. 
8.676e-05 -4.06354e-05 0. 
8.685e-05 -4.06264e-05 0. 
8.694e-05 -4.06155e-05 0. 
8.703e-05 -4.06022e-05 0. 
8.712e-05 -4.05925e-05 0. 
8.71396e-05 -4.059e-05 0. 
6.23059e-05 -4.05e-05 0. 
6.237e-05 -4.05119e-05 0. 
6.246e-05 -4.05325e-05 0. 
6.255e-05 -4.05485e-05 0. 
6.264e-05 -4.05622e-05 0. 
6.273e-05 -4.05692e-05 0. 
6.282e-05 -4.05803e-05 0. 
6.291e-05 -4.0587e-05 0. 
8.721e-05 -4.05808e-05 0. 
8.73e-05 -4.05718e-05 0. 
8.739e-05 -4.05529e-05 0. 
8.748e-05 -4.05435e-05 0. 
8.757e-05 -4.05272e-05 0. 
8.766e-05 -4.05157e-05 0. 
8.77093e-05 -4.05e-05 0. 
6.1979e-05 -4.041e-05 0. 
6.201e-05 -4.04199e-05 0. 
6.21e-05 -4.04504e-05 0. 
6.219e-05 -4.0474e-05 0. 
6.228e-05 -4.04952e-05 0. 
8.775e-05 -4.0487e-05 0. 
8.784e-05 -4.04728e-05 0. 
8.793e-05 -4.043e-05 0. 
8.802e-05 -4.0426e-05 0. 
8.80376e-05 -4.041e-05 0. 
6.18502e-05 -4.032e-05 0. 
6.192e-05 -4.03908e-05 0. 
8.811e-05 -4.03441e-05 0. 
8.81341e-05 -4.032e-05 0. 
6.18017e-05 -4.023e-05 0. 
6.183e-05 -4.02825e-05 0. 
8.81811e-05 -4.023e-05 0. 
6.17944e-05 -4.014e-05 0. 
8.81896e-05 -4.014e-05 0. 
6.17927e-05 -4.005e-05 0. 
8.81928e-05 -4.005e-05 0. 
6.17927e-05 -3.996e-05 0. 
8.81955e-05 -3.996e-05 0. 
6.17918e-05 -3.987e-05 0. 
8.81938e-05 -3.987e-05 0. 
6.17914e-05 -3.978e-05 0. 
8.81945e-05 -3.978e-05 0. 
6.17899e-05 -3.969e-05 0. 
8.81972e-05 -3.969e-05 0. 
6.17908e-05 -3.96e-05 0. 
8.81994e-05 -3.96e-05 0. 
6.17882e-05 -3.951e-05 0. 
8.81978e-05 -3.951e-05 0. 
6.17884e-05 -3.942e-05 0. 
8.8198e-05 -3.942e-05 0. 
6.17896e-05 -3.933e-05 0. 
8.82e-05 -3.93892e-05 0. 
8.82039e-05 -3.933e-05 0. 
6.1788e-05 -3.924e-05 0. 
8.82072e-05 -3.924e-05 0. 
6.17861e-05 -3.915e-05 0. 
8.8207e-05 -3.915e-05 0. 
6.17876e-05 -3.906e-05 0. 
8.82102e-05 -3.906e-05 0. 
6.17893e-05 -3.897e-05 0. 
8.82112e-05 -3.897e-05 0. 
6.17851e-05 -3.888e-05 0. 
8.82114e-05 -3.888e-05 0. 
6.17856e-05 -3.879e-05 0. 
8.82153e-05 -3.879e-05 0. 
6.17874e-05 -3.87e-05 0. 
8.82175e-05 -3.87e-05 0. 
6.17831e-05 -3.861e-05 0. 
8.82175e-05 -3.861e-05 0. 
6.17825e-05 -3.852e-05 0. 
8.8218e-05 -3.852e-05 0. 
6.17802e-05 -3.843e-05 0. 
8.82138e-05 -3.843e-05 0. 
6.17766e-05 -3.834e-05 0. 
8.82151e-05 -3.834e-05 0. 
6.17774e-05 -3.825e-05 0. 
8.82176e-05 -3.825e-05 0. 
6.17735e-05 -3.816e-05 0. 
8.82134e-05 -3.816e-05 0. 
6.17727e-05 -3.807e-05 0. 
8.82167e-05 -3.807e-05 0. 
6.17733e-05 -3.798e-05 0. 
8.8217e-05 -3.798e-05 0. 
6.17727e-05 -3.789e-05 0. 
8.82182e-05 -3.789e-05 0. 
6.1769e-05 -3.78e-05 0. 
8.8216e-05 -3.78e-05 0. 
[...]
POINT_DATA 3175
SCALARS Coverage0 float 1
LOOKUP_TABLE default
0.221044
0.221044
0.193711
0.166682
0.16292
0.194092
0.202576
0.196315
0.196585
0.206885
0.18437
0.185307
0.202759
0.208784
0.201559
0.205295
0.204428
0.202458
0.154773
0.168671
0.191118
0.18327
0.167488
0.195425
0.203555
0.177754
0.208081
0.192381
0.191093
0.212226
0.210077
0.20535
0.204802
0.216952
0.214291
0.199376
0.211523
0.187164
0.177411
0.198161
0.195192
0.205976
0.211083
0.211148
0.20331
0.194966
0.193647
0.207836
0.195093
0.197558
0.177723
0.185695
0.181601
0.202936
0.21787
0.188085
0.159091
0.190878
0.20793
0.192605
0.212457
0.202763
0.178798
0.188655
0.187861
0.179711
0.178558
0.185841
0.203437
0.207092
0.178177
0.190183
0.207044
0.196943
0.198926
0.17998
0.210298
0.201188
0.18063
0.179175
0.199757
0.175609
0.167764
0.194311
0.190822
0.217391
0.200616
0.200616
0.199874
0.199874
0.192166
0.181776
0.189283
0.189283
0.172706
0.172706
0.201886
0.213436
0.18625
0.192955
0.198203
0.227178
0.2231
0.197227
0.18986
0.175833
0.171492
0.195915
0.193737
0.214591
0.223931
0.188622
0.1847
0.225047
0.205169
0.203082
0.187471
0.18891
0.194096
0.198212
0.197606
0.196449
0.185498
0.202887
0.198806
0.21627
0.197581
0.189851
0.192838
0.195267
0.198515
0.196223
0.201228
0.189289
0.177914
0.18324
0.198546
0.209859
0.209039
0.219405
0.202277
0.202256
0.212827
0.194306
0.177802
0.171958
0.185163
0.172635
0.185062
0.20508
0.20323
0.214274
0.188886
0.203309
0.203309
0.195504
0.177067
0.18139
0.191721
0.21265
0.20075
0.19363
0.19952
0.224417
0.190914
0.159678
0.167059
0.197366
0.208835
0.223934
0.220195
0.209845
0.194245
0.176821
0.188886
0.181673
0.198453
0.200456
0.176263
0.173106
0.195923
0.23211
0.221818
0.211186
0.21004
0.215587
0.197933
0.197303
0.196201
0.194873
0.18124
0.18124
0.194993
0.200503
0.19245
0.182355
0.210228
0.188885
0.193971
0.219497
0.198459
0.174084
0.180051
0.170502
0.169048
0.175557
0.199477
0.217368
0.216266
0.181825
0.161195
0.177261
0.192512
0.221271
0.217705
0.216553
0.207976
0.197015
0.214645
0.20996
0.204948
0.196376
0.207673
0.190109
0.191931
0.178735
0.181894
0.183095
0.209207
0.172542
0.178161
0.178161
0.199708
0.199708
0.193392
0.166171
0.191589
0.204217
0.174393
0.190637
0.206819
0.202965
0.202155
0.199579
0.207749
0.197508
0.194993
0.202229
0.199535
0.205512
0.190151
0.178207
0.194654
0.179555
0.177392
0.204723
0.186702
0.196113
0.179896
0.186747
0.186747
0.18331
0.190887
0.181636
0.186368
0.209669
0.203927
0.189493
0.188367
0.213055
0.202937
0.194255
0.186777
0.17464
0.190264
0.195325
0.186426
0.181185
0.191064
0.199532
0.188005
0.188857
0.188857
0.190545
0.177048
0.212811
0.259396
0.21885
0.200326
0.207619
0.18331
0.199466
0.212264
0.185097
0.190309
0.193699
0.246344
0.213299
0.241937
0.241937
0.221567
0.200931
0.190545
0.213299
0.216595
0.219708
0.237616
0.237616
0.336249
0.277171
0.39495
0.39495
0.478343
0.336249
0.552525
0.868041
0.759734
0.937226
0.875971
0.973716
0.87338
0.81952
0.852289
0.763864
0.964311
0.911431
0.933939
0.791748
0.91402
0.871576
0.957418
0.971245
0.95607
0.915656
0.95607
0.907224
0.930013
0.94023
0.883917
0.971344
0.990963
0.951092
0.952892
0.859242
0.896143
0.730675
0.995726
0.881607
0.912064
0.824251
0.846738
0.744482
0.720389
0.988725
0.834317
0.996051
0.814168
0.864762
0.619851
0.963018
0.849723
0.984676
0.993967
0.931373
0.993962
0.951542
0.911948
0.982164
0.913864
0.994569
0.934749
0.926889
0.9607
0.920691
0.865645
0.965532
0.435192
0.812763
0.992861
0.93073
0.947894
0.869012
0.956037
0.819583
0.859077
0.944988
0.998974
0.974919
1
0.960574
0.878807
0.881469
0.764937
0.879461
0.812157
0.943721
0.864957
0.958904
0.905412
0.98702
0.965829
0.979466
0.930688
0.851001
0.65064
0.960885
0.814991
0.972503
0.96692
0.995696
0.801086
0.974664
0.792706
0.864293
0.810455
0.98456
0.596657
0.92676
0.854633
0.908154
0.984904
0.775232
1
0.779297
0.914806
0.744368
0.807251
0.737614
0.784756
0
0
0
0.994337
0
0.999162
0.527391
0.748524
0.814838
0.992491
0.987132
0
0.489732
0
0.86477
0.93964
0
0.94253
0.886177
0.85165
0.683322
0.82803
0
0.917849
0.998588
0.982242
0.867176
1
0.615096
0.922735
0.946597
0.647741
0.983071
0.727026
0.912302
0.87933
0.87933
0.932797
0.87933
0.952699
0.504865
0.948415
0.948415
0.319538
0.936507
0.766199
0.956274
0.771534
0.869357
0.795648
0.999492
0.855295
0.593241
0
0.901242
1
0.868695
0.942635
0.823232
0.912123
0.720832
0.965084
0
0.947679
0
1
0
0.845384
0.947039
0.716832
0
0.663623
0
0.618786
1
0.954078
1
0.979242
1
1
0.938749
0.993195
0.445282
0.776758
0.781737
0.700637
0.840435
0.840435
0.842968
0.700637
0.999365
0.93057
0.905486
0.905486
0.109374
0.905486
0.684492
0
0.794543
0.697701
0.697701
0
0.846406
0.697701
1
0.857327
0
0.878224
1
1
0
0
0
0
1
0
0.932464
1
0.813321
0
0.87072
1
0.777362
0.999796
0.999796
0
0
0.895098
1
0.81897
0
0.900065
0.81897
0
0
0.333298
0
0.895992
0
0.949378
0.773044
0.735955
0.865804
0.786955
0.865804
0
0
1
0
0
0.909107
1
1
1
0
0
0.934834
1
0.966677
1
1
0.902594
1
0.855024
0.855024
0
0
1
1
0
0.917439
1
1
0.893971
1
0.860451
1
0.860451
1
0
1
0
1
0
1
0
0.942067
0
0.651187
0.651187
1
0
1
1
0
0.715945
0.857047
0.810603
0.715945
1
0.775065
1
0.773447
1
0.864036
0
1
0.864036
1
1
1
1
1
0.926946
0.86175
0.86175
0.943916
0.662776
0.662776
1
0.943916
0.662776
0.777177
1
1
0.880741
0.931492
0.670007
1
0.931492
0.670007
0
0
1
0
0
1
1
0.894521
1
1
1
0.892833
0.927004
0.927004
1
1
0.675048
0.675048
0.927004
0.613161
1
1
1
1
1
1
1
1
0
0
1
0
1
0
0
1
0
0.758852
0
0.772988
0.772988
0
0.755508
0
0
0.942831
1
0.942831
0
0.820535
1
0.854222
1
1
1
0.854222
1
1
0
1
1
1
0
0
1
1
0
1
1
1
1
0
0.879643
0.879643
0.841428
1
0.824262
0
0.530479
0.530479
0.824262
1
0.811231
0.811231
0.530479
0
0
1
0.911353
0.911353
0
0.899958
0.8745
0.911353
0.910568
0.897818
0.753872
0
0.897818
0.814529
0.814529
0
1
0
1
1
1
0.836924
0
0.836924
0.90067
0
0
0
0
0.85253
0.85253
0
0
1
1
0.85253
0
1
1
0.949372
1
1
0
0
1
0
1
0
1
0
0.775823
0
0.808228
0.775823
0
0
0
0
0
0
0
0
0
0
0
0
0.997869
0
0
0
1
1
1
0
1
0.951984
0.951984
0
0.897195
0.951984
0
1
1
0.897195
0.8685
0.8685
1
0
0.947679
0.947679
0.8685
0.66228
0
0.906293
0.947679
0
1
1
1
1
0.906293
0
0
0.904072
0.904072
0
0
0
0
0.904072
0.975646
0.975646
1
1
0
0
0.975646
1
1
1
1
1
0
1
1
1
0
1
0
0.796512
0.796512
0
0
0.796512
1
1
0
1
0
0.793686
0.793686
0
1
0
0.793686
0.776023
0
0
0
0
1
0.776023
1
1
1
1
0
1
0.955018
0.955018
1
0.719498
0.719498
0.955018
1
1
1
1
1
1
1
0.936221
0.936221
1
0.796893
0.936221
1
1
1
1
1
0.796893
1
0
1
1
0.990109
0.990109
1
1
0.88465
0.990109
1
0.763236
0
0.682429
0.682429
0
0.666286
1
0
0
0
0.987127
0.987127
0
1
0
1
0.987127
0.98726
0.89074
1
1
1
0.865776
1
1
1
0.612067
1
0.865776
1
0
1
1
0.612067
1
0
0
0
0
0
1
0
0
1
0
0
1
0
0
0
1
0
0
0
1
1
1
0
1
0.548557
0.548557
1
0.843619
0.843619
0.548557
0.864447
0.864447
1
0.849917
0.864447
0.722477
0.904912
0.722477
0
0
1
0.904912
0.792067
0.792067
1
0
0
1
1
0.792067
0.812852
0.915507
1
0.812852
0.867569
1
1
1
0
0
1
0
1
0
0
0
1
0
1
0
1
1
0
1
0
0
0
1
0
1
1
0
0
0
1
0.809436
0
0.934675
0
0
1
0
0
1
1
1
1
1
1
0
1
1
0
0.946591
0
0
0.788181
0.788181
0
1
1
1
0
0
0
0.930231
0.930231
1
1
0.827681
0.930231
0.53745
0.616555
0.681776
0.827681
0
0
0.577063
0.930879
0.930879
0.835485
0
1
0
0.577063
0.930879
0.835485
0.843154
0.843154
1
0.843154
0.843671
1
0.843671
0.9563
1
1
1
1
1
1
1
1
1
1
0
1
1
1
1
1
1
0
1
0
1
0.928615
0.928615
0
0.928615
1
0
1
1
1
1
0
0.962947
0.962947
0
0.778502
0.778502
0.962947
1
0
0
0.825929
0.825929
0.778502
1
1
1
0
1
1
1
1
0
0.902686
0.902686
1
0.865752
0.902686
1
1
0
0
1
0
0
1
1
1
1
0
1
0
1
1
1
1
0
1
0.42853
0.42853
0
0.995254
0.956716
0.956716
0.42853
0
1
1
0.844403
0.844403
0.995254
0.956716
0
0
1
0.844403
0.908952
0.981025
0.981025
0.828212
0.981025
0
0
0
0.844634
0.828212
1
1
0
0
0
1
0
1
1
1
0
1
0
1
1
1
0.99262
0.99262
0
0
1
1
1
1
0.99262
0.512689
0.512689
0.848915
0.848915
0.992261
0
0
0
0
1
0
0
0.923955
0.923955
1
1
1
0
0
0.923955
0.784588
1
1
0.789385
0.789385
1
1
1
0
0
1
0.988825
0.988825
0
1
1
0.988825
0
0
1
0.848102
0
0.722641
0.722641
0
0
0
1
1
1
0
1
0
1
0.966223
0.966223
0.921466
1
1
0
0.966223
1
1
1
0
0
1
0.989707
0.993974
0.993974
0
0
0
0
0.752919
0.989707
0.993974
0
0
0
0
1
0
0
0
1
0.967576
0.967576
1
1
0.967576
0.807771
1
0
0.807771
0
0
0.0198897
0.954544
0.954544
0.954544
0
0.973911
0.954544
1
0
0
0.679503
0.679503
1
0
0.679503
1
0
1
0
1
1
0.81673
1
1
0.841987
0.841987
1
1
0
0
1
0.992135
0.992135
1
1
0.992135
0
1
1
0
1
1
1
0.984052
0.984052
1
0.766481
0.766481
0.984052
1
1
0.794083
0.990142
0.990142
1
0
1
0.990142
1
1
1
0
0
1
0.547373
0.547373
1
0
1
0.547373
0
0
1
1
1
1
0
1
1
1
0
0
1
1
1
0
1
1
0
0
0.987622
0.987622
0
1
0.814126
0.987622
0.98033
0
0.814126
0.98033
0
0
0
0.677742
1
1
0.677742
1
0
0.75885
0.75885
0
0.816988
0.75885
0
0
0.706503
0
0
0.635246
0.635246
0
1
0
0
1
0
1
0
0
1
0
0
1
0
0
0
1
1
0.997226
0.997226
0
1
0.997226
0.905585
0.949261
1
1
1
1
0
0.814468
0.814468
0.97752
0.97752
1
0
1
1
1
0.832221
0.814468
0.97752
1
1
1
0.797419
0
0
0
0
0.797419
0
1
1
1
1
0
1
1
0
1
0
1
1
0
0.829623
0
0
0
1
0.819778
0
0
0
1
1
0.909744
0
0.979229
0.979229
0
0.796629
0.909744
0
0.979229
1
1
0
0
0
1
1
1
0.83071
1
1
1
1
1
1
0.99547
0.99547
1
1
0.99547
0.771545
0
0.755162
1
0.779504
0.779504
1
1
0
0
0
0
0.793076
0.793076
0
1
1
1
0
0.793076
1
0
0
0.997977
0.997977
0
1
0
0
0.997977
0.965427
0
0
0.961259
0.961259
0.965427
0
0
0
0
1
1
0.961259
1
1
1
1
1
1
0
1
1
0
0
1
1
0
0
0
0.778783
1
1
1
1
1
0.778783
0
0
1
0
0
1
1
0
1
1
0.952062
0.952062
1
1
0
0.952062
0.744613
0.988578
1
1
0
0
1
1
0
1
1
1
1
1
1
0.860542
0.860542
1
1
0.868086
0.791566
0.860542
0.999772
0.999772
1
0
0
0
0.999772
0
1
1
1
1
1
0.987684
0.987684
1
1
1
0.987684
0.362455
0.81585
0
0.762853
0
0.763941
0.763941
0
0.803599
0.803599
0.896809
0.849407
0
0.79681
0.803599
0.849407
0
1
0
0.908609
0.908609
0.990842
0
1
0.908609
0.990842
0.793147
0
0.793147
1
0
1
1
0
0.989713
0.989713
0.706628
1
0.989713
0.706628
0.885622
0.885622
1
1
1
1
1
1
0.917638
0.99716
1
0
0.97779
0.97779
0.917638
0.7204
0.7204
0.95114
0.97779
0
0
0
1
0.95114
0
0
0
0
0
0.849949
0
0
0.59964
1
1
0
0.954958
1
1
0
0
1
1
0
0
0.829638
0
0
0.667823
0
0
0
1
0
1
0.650339
0.650339
0.650339
0.793186
1
0.993396
0.994028
0.994028
0.650339
0.748423
0.838163
0.838163
0.993396
0.994028
0.78031
0.78031
0.906703
0.856449
0.856449
1
1
0.906703
1
1
0
0.924467
0.924467
0.930873
0.930873
1
0.588318
0.588318
0.997667
0.924467
0.930873
0.856785
0.856785
1
0.905432
0
0.687601
0.687601
0.838317
0.733052
0.733052
0.4244
0.687601
0
0.733052
0.588752
0.666272
0.371668
0.367547
0.35705
0.373858
0.382973
0.362229
0.357822
0.367386
0.367732
0.351275
0.38247
0.383303
0.357722
0.351103
0.360155
0.380579
0.367467
0.363156
0.379454
0.360939
0.357561
0.358472
0.35784
0.364865
0.370672
0.358047
0.374935
0.382429
0.376662
0.365453
0.366064
0.353553
0.348444
0.385904
0.367882
0.372153
0.382183
0.36954
0.346199
0.369482
0.3576
0.353939
0.354883
0.37067
0.365962
0.360174
0.350721
0.379516
0.349896
0.362546
0.368258
0.349786
0.363363
0.377299
0.375912
0.366318
0.347681
0.356802
0.359714
0.351101
0.355959
0.360024
0.355184
0.365564
0.381423
0.373765
0.358649
0.358009
0.369237
0.357962
0.37597
0.368153
0.351157
0.357561
0.36503
0.377833
0.366886
0.369953
0.373161
0.381252
0.367218
0.342807
0.375633
0.371316
0.373422
0.354359
0.365518
0.360733
0.356719
0.373837
0.390964
0.370261
0.348943
0.380582
0.364933
0.362115
0.387494
0.373089
0.365933
0.37442
0.381184
0.347128
0.362942
0.363026
0.362778
0.362485
0.372234
0.358017
0.379422
0.382577
0.367943
0.354356
0.349755
0.361532
0.36378
0.375138
0.373986
0.368096
0.352282
0.36859
0.363788
0.349016
0.372861
0.382364
0.372711
0.355367
0.364863
0.356375
0.367068
0.367776
0.360023
0.361587
0.381924
0.356844
0.365012
0.362292
0.388106
0.380701
0.37262
0.37306
0.354679
0.365629
0.361337
0.356352
0.357782
0.363003
0.367542
0.360725
0.372486
0.365346
0.381647
0.367921
0.352998
0.34317
0.371214
0.361048
0.371816
0.37532
0.354587
0.360702
0.363092
0.369762
0.379079
0.36166
0.381068
0.363063
0.365141
0.359032
0.377051
0.383322
0.352917
0.373797
0.374391
0.366153
0.359588
0.379447
0.372789
0.362062
0.371228
0.355022
0.363713
0.356498
0.351025
0.375774
0.380662
0.361655
0.35432
0.353866
0.374365
0.369323
0.367446
0.363517
0.363509
0.375593
0.36537
0.369374
0.367998
0.371587
0.355419
0.375156
0.379337
0.380216
0.352421
0.367939
0.352045
0.354806
0.381503
0.36065
0.356902
0.3654
0.37176
0.37863
0.373671
0.350806
0.361467
0.367173
0.374886
0.382306
0.381095
0.370264
0.360804
0.352091
0.361785
0.388274
0.374985
0.378055
0.360055
0.353553
0.368994
0.361122
0.376612
0.356588
0.373794
0.351663
0.359335
0.345504
0.349281
0.363517
0.377522
0.38226
0.360272
0.341949
0.356777
0.36744
0.363272
0.36578
0.354684
0.366679
0.363926
0.375846
0.368794
0.365342
0.367257
0.371758
0.352045
0.351486
0.354446
0.35524
0.364388
0.373289
0.369602
0.350468
0.35627
0.368658
0.392981
0.362138
0.361498
0.35993
0.382362
0.364511
0.370828
0.366204
0.374804
0.373883
0.37291
0.364814
0.350831
0.360648
0.359159
0.366585
0.374092
0.353877
0.358016
0.377225
0.372382
0.368779
0.363575
0.343901
0.352864
0.364464
0.372787
0.379777
0.384958
0.380828
0.347736
0.364173
0.355533
0.357915
0.368345
0.381162
0.358028
0.366107
0.380211
0.367321
0.352849
0.364206
0.377583
0.358528
0.363727
0.365046
0.371849
0.360851
0.370204
0.367766
0.345586
0.365614
0.384773
0.385315
0.375986
0.362679
0.373267
0.3754
0.354754
0.376384
0.354385
0.352816
0.371515
0.359853
0.35886
0.376549
0.374804
0.342773
0.374482
0.380448
0.374433
0.360454
0.367814
0.376747
0.354956
0.357951
0.368043
0.358634
0.373875
0.363497
0.355292
0.368461
0.390529
0.357445
0.378893
0.35542
0.366236
0.367611
0.361773
0.359186
0.36718
0.373987
0.381686
0.374462
0.36017
0.373521
0.362258
0.364636
0.351608
0.371825
0.376778
0.357813
0.361358
0.382748
0.359246
0.351125
0.354575
0.371552
0.355605
0.359166
0.362891
0.350048
0.37141
0.366294
0.375948
0.375947
0.375764
0.393901
0.38267
0.362986
0.368
0.358516
0.355291
0.366128
0.371517
0.35872
0.373129
0.377466
0.379462
0.356295
0.349387
0.368854
0.361129
0.367658
0.370671
0.355017
0.36359
0.387384
0.362462
0.367552
0.376785
0.366064
0.371016
0.366963
0.362544
0.354762
0.374568
0.355993
0.368728
0.374146
0.368232
0.37321
0.368789
0.36662
0.361203
0.37794
0.38646
0.351466
0.359543
0.377347
0.372914
0.373149
0.354454
0.361249
0.371482
0.363621
0.352337
0.383283
0.370397
0.370737
0.370039
0.369734
0.349398
0.370051
0.380547
0.358335
0.349635
0.354742
0.378196
0.362093
0.360771
0.354273
0.364668
0.379573
0.352488
0.360978
0.361516
0.389155
0.378957
0.378402
0.361921
0.359309
0.37141
0.366326
0.366896
0.355229
0.3878
0.383473
0.387789
0.359432
0.347377
0.379644
0.371868
0.374439
0.367113
0.350387
0.36277
0.369095
0.376179
0.375464
0.368075
0.369366
0.360408
0.363554
0.351886
0.370988
0.379644
0.376501
0.35278
0.367754
0.372379
0.34727
0.366876
0.364911
0.372996
0.374106
0.360647
0.367446
0.352498
0.355206
0.372733
0.358402
0.380579
0.355015
0.364085
0.377792
0.366308
0.375633
0.374478
0.333573
0.346345
0.352731
0.358087
0.357966
0.381453
0.368674
0.361837
0.358012
0.372287
0.371484
0.372132
0.356155
0.348367
0.371841
0.358305
0.374114
0.369707
0.384707
0.366636
0.373015
0.359263
0.349627
0.386633
0.364428
0.369729
0.359223
0.346584
0.374293
0.383862
0.355767
0.351389
0.368668
0.370678
0.376319
0.38914
0.373219
0.360781
0.381153
0.356444
0.367825
0.358296
0.361188
0.356362
0.364437
0.384561
0.351012
0.372053
0.377108
0.35532
0.364127
0.368268
0.366123
0.372926
0.365767
0.383846
0.383434
0.359719
0.353871
0.363743
0.369024
0.362482
0.35949
0.367366
0.353217
0.391624
0.372476
0.370281
0.352934
0.35605
0.363849
0.382702
0.355165
0.350415
0.385544
0.374585
0.376518
0.370279
0.370099
0.362824
0.365922
0.375986
0.350441
0.355288
0.34778
0.356325
0.385577
0.362959
0.373094
0.360808
0.377482
0.369296
0.353066
0.36643
0.362576
0.357644
0.353976
0.344745
0.382552
0.3601
0.356499
0.378328
0.378206
0.379511
0.366013
0.361699
0.358822
0.362465
0.362357
0.374484
0.361225
0.374599
0.3503
0.346915
0.36
0.380746
0.367703
0.372294
0.352949
0.369497
0.385133
0.360344
0.353958
0.370768
0.366506
0.384817
0.372708
0.360131
0.368048
0.367009
0.351218
0.364006
0.368049
0.366772
0.373753
0.362414
0.359759
0.375341
0.353316
0.380671
0.378293
0.372606
0.374132
0.350943
0.350879
0.364914
0.358071
0.337488
0.379451
0.37316
0.338091
0.376468
0.371138
0.360308
0.366652
0.357656
0.376158
0.380535
0.342713
0.352554
0.383249
0.375177
0.363445
0.384745
0.382263
0.373135
0.357675
0.354044
0.37136
0.386934
0.374306
0.354415
0.36613
0.37132
0.369888
0.375109
0.352277
0.359133
0.358309
0.37753
0.370822
0.35802
0.365852
0.375926
0.349008
0.387327
0.378007
0.373513
0.348526
0.362281
0.369435
0.37143
0.36281
0.368527
0.375413
0.353492
0.347536
0.361036
0.375917
0.373054
0.369882
0.361347
0.359328
0.383022
0.378153
0.360789
0.378571
0.339787
0.358163
0.376841
0.354945
0.364697
0.380078
0.383336
0.407535
0.353292
0.36145
0.347177
0.376616
0.374295
0.385272
0.373238
0.35449
0.351278
0.339565
0.389486
0.377402
0.377937
0.366506
0.348065
0.359592
0.350828
0.356003
0.361807
0.377659
0.356755
0.369735
0.369194
0.373197
0.379153
0.362394
0.375795
0.380365
0.338936
0.362542
0.360007
0.362256
0.376851
0.381504
0.358382
0.344969
0.358405
0.382043
0.360595
0.356403
0.364933
0.369915
0.353713
0.353949
0.372212
0.378126
0.383599
0.360316
0.34349
0.380212
0.379005
0.355067
0.345771
0.348069
0.37118
0.376236
0.3852
0.35808
0.379801
0.370302
0.38002
0.350966
0.367597
0.366984
0.364367
0.365992
0.374354
0.375388
0.371556
0.36459
0.360141
0.365619
0.353993
0.351138
0.358757
0.374355
0.383645
0.371844
0.375092
0.375749
0.360997
0.359588
0.35137
0.365262
0.367489
0.355917
0.356391
0.367518
0.36254
0.386202
0.365856
0.354452
0.359241
0.353649
0.352674
0.387074
0.391756
0.366842
0.369244
0.376591
0.390245
0.361643
0.338837
0.361481
0.361374
0.362141
0.376704
0.36327
0.3751
0.342547
0.371492
0.366411
0.359708
0.367414
0.37271
0.356879
0.390655
0.384558
0.351218
0.376455
0.373532
0.366534
0.355694
0.362172
0.378702
0.354559
0.353789
0.368611
0.376495
0.360848
0.363178
0.372213
0.360744
0.371018
0.381191
0.37172
0.363951
0.374887
0.350073
0.362908
0.359313
0.37054
0.38551
0.371163
0.362529
0.34863
0.367506
0.372038
0.372119
0.372131
0.368516
0.363286
0.359809
0.389016
0.366209
0.351964
0.362136
0.393169
0.3712
0.359174
0.352726
0.384903
0.390975
0.370942
0.365357
0.357445
0.365342
0.367222
0.36594
0.375563
0.373787
0.36543
0.376402
0.389718
0.369956
0.346976
0.355188
0.340977
0.361672
0.380056
0.379325
0.359534
0.361662
0.363016
0.361707
0.388031
0.359669
0.359998
0.355085
0.350263
0.37359
0.374198
0.365892
0.352166
0.358956
0.370895
0.378496
0.351698
0.365301
0.371186
0.367595
0.364513
0.370001
0.359815
0.381282
0.380492
0.365466
0.354976
0.363443
0.371572
0.388403
0.385014
0.345436
0.349792
0.373652
0.370831
0.355358
0.358663
0.374161
0.361476
0.37542
0.353453
0.360145
0.367826
0.363117
0.364776
0.381911
0.360299
0.371576
0.347601
0.366047
0.366427
0.366121
0.37299
0.358353
0.351268
0.360236
0.35441
0.351322
0.374273
0.387505
0.369905
0.371455
0.361016
0.373007
0.362807
0.368901
0.351375
0.361945
0.364456
0.370661
0.366378
0.368939
0.357043
0.376141
0.349431
0.347534
0.369175
0.354616
0.362703
0.358756
0.362904
0.368917
0.359813
0.358847
0.381164
0.370471
0.357796
0.366847
0.374142
0.376355
0.354677
0.350075
0.37522
0.376299
0.360319
0.365762
0.377416
0.378555
0.373824
0.379678
0.348013
0.338322
0.353168
0.390499
0.381635
0.352004
0.364496
0.372898
0.35191
0.36762
0.368059
0.356099
0.374716
0.368943
0.3659
0.349842
0.359037
0.364092
0.360155
0.371477
0.361791
0.359486
0.372901
0.366951
0.35712
0.374333
0.368344
0.365447
0.372043
0.360935
0.362883
0.371524
0.356143
0.34819
0.352412
0.368668
0.370296
0.381099
0.359527
0.373975
0.387887
0.347374
0.366318
0.371814
0.368703
0.357513
0.351547
0.36585
0.365126
0.357828
0.366074
0.357428
0.376524
0.366913
0.363141
0.383348
0.372547
0.364673
0.367102
0.36861
0.362835
0.369256
0.376251
0.374211
0.356993
0.358715
0.356622
0.377911
0.379944
0.37602
0.363205
0.356258
0.364809
0.371974
0.373638
0.368276
0.363232
0.36765
0.355651
0.369304
0.376634
0.346737