# vtk DataFile Version 2.0
2D Surface
ASCII
DATASET UNSTRUCTURED_GRID
POINTS 2363 float
7.26018e-05 -1.917e-05 0. 
7.263e-05 -1.91724e-05 0. 
7.272e-05 -1.91786e-05 0. 
7.281e-05 -1.91837e-05 0. 
7.29e-05 -1.91899e-05 0. 
7.299e-05 -1.919e-05 0. 
7.308e-05 -1.91916e-05 0. 
7.317e-05 -1.91982e-05 0. 
7.326e-05 -1.91983e-05 0. 
7.335e-05 -1.91959e-05 0. 
7.344e-05 -1.91892e-05 0. 
7.353e-05 -1.9194e-05 0. 
7.362e-05 -1.91991e-05 0. 
7.371e-05 -1.9199e-05 0. 
7.38e-05 -1.91985e-05 0. 
7.389e-05 -1.91964e-05 0. 
7.398e-05 -1.91979e-05 0. 
7.407e-05 -1.91953e-05 0. 
7.416e-05 -1.91929e-05 0. 
7.425e-05 -1.91916e-05 0. 
7.434e-05 -1.91982e-05 0. 
7.443e-05 -1.91999e-05 0. 
7.452e-05 -1.92026e-05 0. 
7.461e-05 -1.92068e-05 0. 
7.47e-05 -1.92057e-05 0. 
7.479e-05 -1.92022e-05 0. 
7.488e-05 -1.92016e-05 0. 
7.497e-05 -1.92007e-05 0. 
7.506e-05 -1.91942e-05 0. 
7.515e-05 -1.91919e-05 0. 
7.524e-05 -1.91962e-05 0. 
7.533e-05 -1.91998e-05 0. 
7.542e-05 -1.92017e-05 0. 
7.551e-05 -1.9199e-05 0. 
7.56e-05 -1.91964e-05 0. 
7.569e-05 -1.91899e-05 0. 
7.578e-05 -1.91977e-05 0. 
7.587e-05 -1.92035e-05 0. 
7.596e-05 -1.92041e-05 0. 
7.605e-05 -1.92052e-05 0. 
7.614e-05 -1.9198e-05 0. 
7.623e-05 -1.91918e-05 0. 
7.632e-05 -1.91958e-05 0. 
7.641e-05 -1.91955e-05 0. 
7.65e-05 -1.9191e-05 0. 
7.659e-05 -1.91932e-05 0. 
7.668e-05 -1.91905e-05 0. 
7.677e-05 -1.91924e-05 0. 
7.686e-05 -1.91957e-05 0. 
7.695e-05 -1.91839e-05 0. 
7.704e-05 -1.91864e-05 0. 
7.713e-05 -1.91849e-05 0. 
7.722e-05 -1.91838e-05 0. 
7.731e-05 -1.91821e-05 0. 
7.74e-05 -1.91896e-05 0. 
7.749e-05 -1.91898e-05 0. 
7.758e-05 -1.91821e-05 0. 
7.767e-05 -1.91761e-05 0. 
7.776e-05 -1.91739e-05 0. 
7.785e-05 -1.91751e-05 0. 
7.794e-05 -1.91793e-05 0. 
7.803e-05 -1.91806e-05 0. 
7.812e-05 -1.91782e-05 0. 
7.821e-05 -1.91776e-05 0. 
7.83e-05 -1.91715e-05 0. 
7.839e-05 -1.91721e-05 0. 
7.84124e-05 -1.917e-05 0. 
6.82531e-05 -1.908e-05 0. 
6.831e-05 -1.90841e-05 0. 
6.84e-05 -1.90835e-05 0. 
6.849e-05 -1.90842e-05 0. 
6.858e-05 -1.90919e-05 0. 
6.867e-05 -1.90909e-05 0. 
6.876e-05 -1.9089e-05 0. 
6.885e-05 -1.90937e-05 0. 
6.894e-05 -1.90976e-05 0. 
6.903e-05 -1.90901e-05 0. 
6.912e-05 -1.90964e-05 0. 
6.921e-05 -1.91001e-05 0. 
6.93e-05 -1.90986e-05 0. 
6.939e-05 -1.90985e-05 0. 
6.948e-05 -1.91027e-05 0. 
6.957e-05 -1.91108e-05 0. 
6.966e-05 -1.91103e-05 0. 
6.975e-05 -1.91161e-05 0. 
6.984e-05 -1.91222e-05 0. 
6.993e-05 -1.91221e-05 0. 
7.002e-05 -1.91205e-05 0. 
7.011e-05 -1.91277e-05 0. 
7.02e-05 -1.91381e-05 0. 
7.029e-05 -1.91476e-05 0. 
7.038e-05 -1.91488e-05 0. 
7.047e-05 -1.91474e-05 0. 
7.056e-05 -1.91504e-05 0. 
7.065e-05 -1.91543e-05 0. 
7.074e-05 -1.91484e-05 0. 
7.083e-05 -1.91483e-05 0. 
7.092e-05 -1.91442e-05 0. 
7.101e-05 -1.9149e-05 0. 
7.11e-05 -1.91463e-05 0. 
7.119e-05 -1.91371e-05 0. 
7.128e-05 -1.9138e-05 0. 
7.137e-05 -1.91431e-05 0. 
7.146e-05 -1.9147e-05 0. 
7.155e-05 -1.91427e-05 0. 
7.164e-05 -1.91496e-05 0. 
7.173e-05 -1.91537e-05 0. 
7.182e-05 -1.91532e-05 0. 
7.191e-05 -1.91552e-05 0. 
7.2e-05 -1.91564e-05 0. 
7.209e-05 -1.91581e-05 0. 
7.218e-05 -1.91576e-05 0. 
7.227e-05 -1.91579e-05 0. 
7.236e-05 -1.91634e-05 0. 
7.245e-05 -1.91653e-05 0. 
7.254e-05 -1.91648e-05 0. 
7.848e-05 -1.91635e-05 0. 
7.857e-05 -1.91571e-05 0. 
7.866e-05 -1.91575e-05 0. 
7.875e-05 -1.91436e-05 0. 
7.884e-05 -1.91469e-05 0. 
7.893e-05 -1.91535e-05 0. 
7.902e-05 -1.91463e-05 0. 
7.911e-05 -1.91443e-05 0. 
7.92e-05 -1.91451e-05 0. 
7.929e-05 -1.91421e-05 0. 
7.938e-05 -1.91356e-05 0. 
7.947e-05 -1.91325e-05 0. 
7.956e-05 -1.91349e-05 0. 
7.965e-05 -1.91351e-05 0. 
7.974e-05 -1.91333e-05 0. 
7.983e-05 -1.91253e-05 0. 
7.992e-05 -1.91228e-05 0. 
8.001e-05 -1.91245e-05 0. 
8.01e-05 -1.91237e-05 0. 
8.019e-05 -1.91187e-05 0. 
8.028e-05 -1.91134e-05 0. 
8.037e-05 -1.91149e-05 0. 
8.046e-05 -1.91154e-05 0. 
8.055e-05 -1.91105e-05 0. 
8.064e-05 -1.91037e-05 0. 
8.073e-05 -1.91077e-05 0. 
8.082e-05 -1.91094e-05 0. 
8.091e-05 -1.91038e-05 0. 
8.1e-05 -1.9094e-05 0. 
8.109e-05 -1.90887e-05 0. 
8.118e-05 -1.90861e-05 0. 
8.127e-05 -1.90846e-05 0. 
8.136e-05 -1.90878e-05 0. 
8.145e-05 -1.90807e-05 0. 
8.154e-05 -1.90865e-05 0. 
8.163e-05 -1.90828e-05 0. 
8.16563e-05 -1.908e-05 0. 
6.64508e-05 -1.899e-05 0. 
6.651e-05 -1.89938e-05 0. 
6.66e-05 -1.89981e-05 0. 
6.669e-05 -1.90062e-05 0. 
6.678e-05 -1.90114e-05 0. 
6.687e-05 -1.90078e-05 0. 
6.696e-05 -1.90252e-05 0. 
6.705e-05 -1.90374e-05 0. 
6.714e-05 -1.9039e-05 0. 
6.723e-05 -1.90374e-05 0. 
6.732e-05 -1.90383e-05 0. 
6.741e-05 -1.90344e-05 0. 
6.75e-05 -1.9032e-05 0. 
6.759e-05 -1.90349e-05 0. 
6.768e-05 -1.90465e-05 0. 
6.777e-05 -1.9059e-05 0. 
6.786e-05 -1.90621e-05 0. 
6.795e-05 -1.90616e-05 0. 
6.804e-05 -1.90634e-05 0. 
6.813e-05 -1.90698e-05 0. 
6.822e-05 -1.90776e-05 0. 
8.172e-05 -1.90732e-05 0. 
8.181e-05 -1.90709e-05 0. 
8.19e-05 -1.90577e-05 0. 
8.199e-05 -1.90489e-05 0. 
8.208e-05 -1.90438e-05 0. 
8.217e-05 -1.90401e-05 0. 
8.226e-05 -1.90321e-05 0. 
8.235e-05 -1.903e-05 0. 
8.244e-05 -1.90297e-05 0. 
8.253e-05 -1.90251e-05 0. 
8.262e-05 -1.90252e-05 0. 
8.271e-05 -1.90234e-05 0. 
8.28e-05 -1.90187e-05 0. 
8.289e-05 -1.90122e-05 0. 
8.298e-05 -1.9008e-05 0. 
8.307e-05 -1.90048e-05 0. 
8.316e-05 -1.8995e-05 0. 
8.325e-05 -1.89917e-05 0. 
8.32986e-05 -1.899e-05 0. 
6.49896e-05 -1.89e-05 0. 
6.507e-05 -1.89019e-05 0. 
6.516e-05 -1.89042e-05 0. 
6.525e-05 -1.89124e-05 0. 
6.534e-05 -1.89246e-05 0. 
6.543e-05 -1.8934e-05 0. 
6.552e-05 -1.89422e-05 0. 
6.561e-05 -1.89436e-05 0. 
6.57e-05 -1.8954e-05 0. 
6.579e-05 -1.89565e-05 0. 
6.588e-05 -1.89648e-05 0. 
6.597e-05 -1.897e-05 0. 
6.606e-05 -1.89752e-05 0. 
6.615e-05 -1.89795e-05 0. 
6.624e-05 -1.89775e-05 0. 
6.633e-05 -1.89799e-05 0. 
6.642e-05 -1.8988e-05 0. 
8.334e-05 -1.89886e-05 0. 
8.343e-05 -1.89822e-05 0. 
8.352e-05 -1.89778e-05 0. 
8.361e-05 -1.89716e-05 0. 
8.37e-05 -1.89715e-05 0. 
8.379e-05 -1.89665e-05 0. 
8.388e-05 -1.89574e-05 0. 
8.397e-05 -1.89543e-05 0. 
8.406e-05 -1.8954e-05 0. 
8.415e-05 -1.89491e-05 0. 
8.424e-05 -1.89456e-05 0. 
8.433e-05 -1.89369e-05 0. 
8.442e-05 -1.89263e-05 0. 
8.451e-05 -1.89163e-05 0. 
8.46e-05 -1.89185e-05 0. 
8.469e-05 -1.89187e-05 0. 
8.478e-05 -1.89128e-05 0. 
8.487e-05 -1.89135e-05 0. 
8.496e-05 -1.89115e-05 0. 
8.505e-05 -1.89098e-05 0. 
8.514e-05 -1.89007e-05 0. 
8.51498e-05 -1.89e-05 0. 
6.36607e-05 -1.881e-05 0. 
6.372e-05 -1.88162e-05 0. 
6.381e-05 -1.88342e-05 0. 
6.39e-05 -1.88426e-05 0. 
6.399e-05 -1.88424e-05 0. 
6.408e-05 -1.88483e-05 0. 
6.417e-05 -1.88545e-05 0. 
6.426e-05 -1.88643e-05 0. 
6.435e-05 -1.88691e-05 0. 
6.444e-05 -1.88731e-05 0. 
6.453e-05 -1.88761e-05 0. 
6.462e-05 -1.88758e-05 0. 
6.471e-05 -1.88809e-05 0. 
6.48e-05 -1.88847e-05 0. 
6.489e-05 -1.88909e-05 0. 
6.498e-05 -1.88998e-05 0. 
8.523e-05 -1.88946e-05 0. 
8.532e-05 -1.88919e-05 0. 
8.541e-05 -1.88802e-05 0. 
8.55e-05 -1.88727e-05 0. 
8.559e-05 -1.88704e-05 0. 
8.568e-05 -1.8861e-05 0. 
8.577e-05 -1.88565e-05 0. 
8.586e-05 -1.88487e-05 0. 
8.595e-05 -1.88405e-05 0. 
8.604e-05 -1.88292e-05 0. 
8.613e-05 -1.88244e-05 0. 
8.622e-05 -1.88204e-05 0. 
8.631e-05 -1.88144e-05 0. 
8.63863e-05 -1.881e-05 0. 
6.25676e-05 -1.872e-05 0. 
6.264e-05 -1.87268e-05 0. 
6.273e-05 -1.8741e-05 0. 
6.282e-05 -1.87502e-05 0. 
6.291e-05 -1.87528e-05 0. 
6.3e-05 -1.87563e-05 0. 
6.309e-05 -1.87624e-05 0. 
6.318e-05 -1.87746e-05 0. 
6.327e-05 -1.87857e-05 0. 
6.336e-05 -1.8793e-05 0. 
6.345e-05 -1.87972e-05 0. 
6.354e-05 -1.88012e-05 0. 
6.363e-05 -1.88068e-05 0. 
8.64e-05 -1.88092e-05 0. 
8.649e-05 -1.88064e-05 0. 
8.658e-05 -1.87999e-05 0. 
8.667e-05 -1.87898e-05 0. 
8.676e-05 -1.87853e-05 0. 
8.685e-05 -1.87808e-05 0. 
8.694e-05 -1.87762e-05 0. 
8.703e-05 -1.87666e-05 0. 
8.712e-05 -1.87562e-05 0. 
8.721e-05 -1.87516e-05 0. 
8.73e-05 -1.87409e-05 0. 
8.739e-05 -1.873e-05 0. 
8.748e-05 -1.87225e-05 0. 
8.74971e-05 -1.872e-05 0. 
6.16353e-05 -1.863e-05 0. 
6.165e-05 -1.86317e-05 0. 
6.174e-05 -1.86531e-05 0. 
6.183e-05 -1.86578e-05 0. 
6.192e-05 -1.86683e-05 0. 
6.201e-05 -1.86759e-05 0. 
6.21e-05 -1.86822e-05 0. 
6.219e-05 -1.86908e-05 0. 
6.228e-05 -1.87003e-05 0. 
6.237e-05 -1.87072e-05 0. 
6.246e-05 -1.87129e-05 0. 
6.255e-05 -1.87184e-05 0. 
8.757e-05 -1.87093e-05 0. 
8.766e-05 -1.86993e-05 0. 
8.775e-05 -1.86916e-05 0. 
8.784e-05 -1.86794e-05 0. 
8.793e-05 -1.86774e-05 0. 
8.802e-05 -1.86698e-05 0. 
8.811e-05 -1.86625e-05 0. 
8.82e-05 -1.86539e-05 0. 
8.829e-05 -1.86482e-05 0. 
8.838e-05 -1.864e-05 0. 
8.84368e-05 -1.863e-05 0. 
6.11742e-05 -1.854e-05 0. 
6.12e-05 -1.85658e-05 0. 
6.129e-05 -1.85824e-05 0. 
6.138e-05 -1.86082e-05 0. 
6.147e-05 -1.8603e-05 0. 
6.156e-05 -1.86215e-05 0. 
8.847e-05 -1.86241e-05 0. 
8.856e-05 -1.86196e-05 0. 
8.865e-05 -1.85858e-05 0. 
8.874e-05 -1.85957e-05 0. 
8.88032e-05 -1.854e-05 0. 
6.11065e-05 -1.845e-05 0. 
6.111e-05 -1.84546e-05 0. 
8.883e-05 -1.85136e-05 0. 
8.88868e-05 -1.845e-05 0. 
6.10829e-05 -1.836e-05 0. 
8.89139e-05 -1.836e-05 0. 
6.10783e-05 -1.827e-05 0. 
8.892e-05 -1.82927e-05 0. 
8.8922e-05 -1.827e-05 0. 
6.10757e-05 -1.818e-05 0. 
8.89246e-05 -1.818e-05 0. 
6.10772e-05 -1.809e-05 0. 
8.89256e-05 -1.809e-05 0. 
6.10759e-05 -1.8e-05 0. 
8.8928e-05 -1.8e-05 0. 
6.10828e-05 -1.791e-05 0. 
8.89299e-05 -1.791e-05 0. 
6.10815e-05 -1.782e-05 0. 
8.89292e-05 -1.782e-05 0. 
6.1081e-05 -1.773e-05 0. 
8.89328e-05 -1.773e-05 0. 
6.10792e-05 -1.764e-05 0. 
8.89285e-05 -1.764e-05 0. 
6.10831e-05 -1.755e-05 0. 
8.89329e-05 -1.755e-05 0. 
6.10751e-05 -1.746e-05 0. 
8.8935e-05 -1.746e-05 0. 
6.10767e-05 -1.737e-05 0. 
8.89368e-05 -1.737e-05 0. 
6.10716e-05 -1.728e-05 0. 
8.89365e-05 -1.728e-05 0. 
6.10663e-05 -1.719e-05 0. 
8.89243e-05 -1.719e-05 0. 
6.10608e-05 -1.71e-05 0. 
8.89274e-05 -1.71e-05 0. 
6.10511e-05 -1.701e-05 0. 
8.89281e-05 -1.701e-05 0. 
6.10605e-05 -1.692e-05 0. 
8.89293e-05 -1.692e-05 0. 
6.10526e-05 -1.683e-05 0. 
8.89355e-05 -1.683e-05 0. 
6.10659e-05 -1.674e-05 0. 
8.89265e-05 -1.674e-05 0. 
6.10674e-05 -1.665e-05 0. 
8.89374e-05 -1.665e-05 0. 
6.10685e-05 -1.656e-05 0. 
8.89398e-05 -1.656e-05 0. 
[...]
POINT_DATA 2363
SCALARS Coverage0 float 1
LOOKUP_TABLE default
0.26863
0.26863
0.28615
0.283864
0.29331
0.301123
0.286757
0.286294
0.290925
0.289405
0.305539
0.300069
0.263899
0.293185
0.30121
0.255757
0.265499
0.302582
0.305584
0.298753
0.318039
0.304407
0.318279
0.274982
0.270525
0.28304
0.283772
0.284144
0.280831
0.260477
0.264661
0.304767
0.302223
0.275223
0.253989
0.261233
0.272977
0.283432
0.274872
0.304811
0.330429
0.289123
0.285605
0.251284
0.26425
0.287483
0.296836
0.27221
0.288089
0.297212
0.304655
0.295378
0.256174
0.274901
0.317818
0.310336
0.290135
0.259046
0.285877
0.274052
0.282676
0.294985
0.290929
0.284867
0.289267
0.269369
0.269369
0.283041
0.277378
0.288457
0.287589
0.281257
0.251979
0.271384
0.296774
0.2992
0.287626
0.251698
0.262137
0.27234
0.281727
0.273626
0.259156
0.23868
0.253529
0.266043
0.280274
0.296028
0.28241
0.276249
0.293999
0.281657
0.273081
0.28736
0.314797
0.315066
0.293257
0.272077
0.302967
0.299909
0.262814
0.297744
0.278059
0.258124
0.261688
0.288335
0.263823
0.258184
0.273483
0.294834
0.292285
0.279275
0.276821
0.287802
0.287009
0.261198
0.26605
0.286639
0.288972
0.293441
0.288046
0.286292
0.30049
0.276349
0.278947
0.294608
0.27501
0.290908
0.306091
0.295655
0.272916
0.262471
0.270898
0.2914
0.273809
0.258625
0.267154
0.310557
0.307106
0.273521
0.289684
0.299257
0.286473
0.266372
0.25889
0.267743
0.277236
0.281346
0.286826
0.289752
0.288681
0.292127
0.292127
0.253738
0.241032
0.26903
0.282767
0.297202
0.260423
0.270828
0.267575
0.255724
0.288792
0.289976
0.285849
0.270695
0.263503
0.270688
0.270903
0.266
0.260752
0.282593
0.293664
0.283041
0.275838
0.270384
0.281138
0.262078
0.268511
0.283652
0.267028
0.268831
0.25385
0.276242
0.260349
0.270666
0.280746
0.265925
0.23862
0.252958
0.253896
0.274562
0.301671
0.241884
0.258016
0.274314
0.264182
0.259993
0.228787
0.266095
0.284499
0.280052
0.261596
0.266316
0.26427
0.265186
0.282398
0.284295
0.268687
0.253738
0.301671
0.283157
0.259856
0.259762
0.236084
0.240439
0.27817
0.27767
0.260229
0.276933
0.249594
0.253184
0.251042
0.257933
0.265207
0.283642
0.260144
0.247564
0.268872
0.270769
0.255522
0.255522
0.282752
0.279196
0.284476
0.255016
0.283254
0.261325
0.251692
0.259212
0.247473
0.252905
0.259554
0.283822
0.268279
0.261898
0.254225
0.241884
0.271157
0.264928
0.226529
0.237404
0.251494
0.264213
0.287126
0.290749
0.264998
0.240784
0.222163
0.240182
0.289692
0.281784
0.226866
0.247904
0.257866
0.233461
0.24571
0.264419
0.242067
0.254535
0.259914
0.229126
0.253011
0.267234
0.282752
0.281784
0.255649
0.26123
0.254128
0.275075
0.272746
0.247512
0.247013
0.225911
0.250884
0.25679
0.245004
0.224896
0.224896
0.261303
0.261303
0.263966
0.264797
0.253478
0.237608
0.255959
0.240091
0.232386
0.22114
0.223402
0.226866
0.247353
0.24537
0.259154
0.253208
0.253554
0.2411
0.231884
0.221699
0.247723
0.282921
0.280749
0.357054
0.357054
0.25226
0.249517
0.265657
0.279625
0.280749
0.277802
0.258427
0.30565
0.42192
0.540191
0.540191
0.42192
0.543434
0.788577
0.737266
0.902132
0.896892
0.896892
0.719499
0.959319
0.748228
0.973013
0.473705
0.976904
0.891468
0.946624
0.926454
0.878102
0.971685
0.86488
0.160616
0.953787
0.880046
0.219287
0.919892
0.84741
0.898522
0.996983
0.857638
1
0.837846
1
0.905158
0.979923
1
0.845081
0.992125
0.941395
0
0.99874
0
0.988481
0.708155
0.837462
0.866124
0.899457
0.991037
0.985096
0.984077
0.948647
0.956407
0.80284
0.8278
0.998504
0.97184
0.99854
0.984406
0.962562
0.996278
0.798419
0.880347
0.998487
1
0.895537
1
0.741249
1
0.826533
1
0
0.673888
0
0.79895
1
0.842404
0
1
1
0.999291
1
0
0.752164
1
0.762638
0
0
0.95671
0.782831
0.909545
0.830403
0.946516
0
0
0.871594
1
1
0
1
0.852026
1
0.763782
0.891262
0.887908
0.887908
0.881094
1
0.881094
0
1
1
1
1
0
1
0
1
1
0
1
0
1
0.811475
0.884615
1
1
0.822076
1
0.980441
0.900229
0.849749
0.849749
0.874264
0.900229
0
0.987723
0
0.990321
0
0
0.868642
0.868642
0
0
0
0.828897
1
1
1
0.828897
0.861571
0.861571
1
1
0.981083
0.981083
0.861571
0.789074
0.958009
0.981083
0
0
0
0.958009
0
0
0
0.914283
0
0
0.70816
1
1
0.74134
1
0.74134
1
1
0
1
0
0.86491
1
0.988763
0
0
0.617428
0.617428
0
0.69158
0
0
0
1
1
0
1
0
0.826105
0.888303
1
1
0.888303
1
1
0
0
1
0.97386
0.97386
0
0
0
0
0.97386
0
0
0
0
0
0
0
1
0.931089
0.931089
1
1
0.931089
1
1
0.722129
0.722129
1
0
0
0.771658
0.771658
0.722129
0
0.699696
1
0
0
1
0
1
0
1
0.969464
0.969464
0
1
0.969464
0.74024
0.74024
1
1
0.686558
0.688315
0.686558
0
0
0.688315
0.57607
0.57607
1
1
0.57607
0.602615
1
1
0.602615
1
1
0.789401
1
1
0.996909
1
1
1
0
0.737918
0
0.830691
0.820316
1
0
0
1
0.94221
0.94221
0.824784
0
1
0.94221
0.824784
0.847201
0
0.814368
1
1
0.814368
1
1
1
0
0
1
1
1
0
1
1
0
0
1
0.923887
0.770883
0.652247
0.652247
0
0.770883
0
0
0.923336
1
1
0.923336
1
0
0
0
0
0.789141
0
0
0
0.787747
0.604327
0.604327
0.776064
0.787747
0.604327
1
0
0
1
0
1
0
0
1
0
0
1
0
1
0.999581
1
1
0.966549
0.966549
1
0
1
1
1
0
0.988935
0.988935
0
1
1
0.941583
0.941583
0.988935
1
1
1
0.973341
0
0
0
0
0.973341
0
1
1
1
1
0
1
1
0
1
0
1
1
0
1
0.770551
0
0
0
1
0
0.770551
0
0
0
1
1
1
0.965865
0.919423
0.919423
0
0.872485
0.965865
0.919423
1
1
0
0.872485
0
0
1
1
1
0.928984
1
0
1
1
1
0.928984
0.985997
0.985997
0.720515
1
0.985997
0.720515
0.779512
0
0.758386
1
0.813645
0.813645
1
1
0
0
0
1
0.991515
0
1
1
1
0
0.991515
1
0
0
0.806171
0.806171
1
0
0
0.806171
0.660411
0.660411
0
0
0
0
0
0
0
1
1
0
1
1
1
1
1
1
0
0.980973
0.980973
0
0
1
0.99472
1
0.99472
0.980973
0
0
0
0.924988
0.99472
1
1
1
1
1
0.924988
0
0
1
0
0
1
1
0
1
1
1
0.840835
0
0.898469
0.898469
1
1
0
1
1
0
1
1
1
1
1
1
0.982028
0.982028
1
1
1
0.738863
0.982028
0
0
1
0
0
0
0
0
1
1
0.922539
0.922539
1
1
0.922539
0.794808
1
1
0.823971
0
0.881937
0
0.881937
0.779255
0
0.988597
0.988597
0
0
1
0.929435
0.988597
0
0
1
0
0.762507
0.762507
1
0
1
0.762507
1
0
0
0
0
0
0.766137
0.766137
0
0.966068
0.966068
0.887945
1
0.966068
0.887945
0
1
1
1
0.89203
0.89203
1
1
1
0.89203
0.812212
0
0.964423
0.964423
0.777339
0.742024
0.964423
0.777339
0.892597
0
0
1
0.742024
1
0
0
0.759621
0.759621
0
0
0.759621
0.792457
1
1
0
0.833163
1
1
0.795935
0
0.804741
0.804741
1
0
0
0.823575
0
0
0.823575
1
0
0
0
1
1
1
0
1
1
0.759159
1
0.95013
0.965064
0.965064
0.791132
0.565106
0.565106
0.95013
0.965064
0.791132
1
0.799423
0.769131
0.769131
1
1
0.799423
1
1
0
0.348652
0.348652
0.841596
0.998334
1
0.851849
0.851849
0.733998
0.348652
0.841596
0.702583
0.702583
1
0.825097
0
0.998019
0.998019
0.961535
0.739201
0.739201
0.536222
0.998019
0
0.739201
0.655467
0.691139
0.368821
0.367215
0.372767
0.348816
0.35812
0.348097
0.356373
0.374943
0.360822
0.368111
0.361072
0.367148
0.354213
0.352043
0.359838
0.375806
0.373621
0.383036
0.365478
0.37568
0.360932
0.368251
0.355501
0.354029
0.388624
0.375907
0.356558
0.353977
0.35488
0.347152
0.355397
0.35569
0.361519
0.377341
0.36705
0.375908
0.354162
0.370987
0.370346
0.368126
0.36694
0.341485
0.364808
0.368152
0.366832
0.360971
0.351717
0.378138
0.374392
0.364247
0.378251
0.367131
0.359152
0.363509
0.382834
0.339662
0.352437
0.37132
0.369092
0.360063
0.348301
0.355669
0.356393
0.356832
0.364841
0.365058
0.373207
0.377489
0.378851
0.368399
0.36862
0.375208
0.361653
0.370437
0.368588
0.37572
0.371228
0.360344
0.382606
0.374128
0.345542
0.359026
0.37245
0.362935
0.359922
0.368246
0.380043
0.364051
0.351847
0.357888
0.357428
0.36491
0.370613
0.37464
0.368091
0.380199
0.364835
0.366963
0.368525
0.361723
0.36607
0.376256
0.352219
0.36347
0.362845
0.375704
0.376996
0.376717
0.371071
0.375085
0.385433
0.361786
0.377007
0.369692
0.356901
0.344609
0.368594
0.336152
0.373735
0.386689
0.370212
0.3546
0.362653
0.366187
0.359031
0.384769
0.374763
0.367621
0.352069
0.371992
0.37553
0.368371
0.366861
0.382881
0.365673
0.368912
0.368098
0.365218
0.352661
0.343055
0.376869
0.389881
0.365545
0.37519
0.382243
0.360606
0.364462
0.34813
0.354078
0.358275
0.370635
0.366068
0.387119
0.358224
0.350239
0.378826
0.365193
0.383072
0.374652
0.36503
0.363526
0.354307
0.344217
0.355918
0.370177
0.36882
0.36174
0.360169
0.342302
0.341504
0.380722
0.394024
0.362919
0.352904
0.360123
0.372633
0.358032
0.371313
0.383124
0.359975
0.365103
0.383526
0.361444
0.346223
0.362935
0.363021
0.349123
0.353496
0.375083
0.372388
0.374467
0.348601
0.382004
0.374221
0.347995
0.376551
0.370215
0.346839
0.365246
0.377838
0.355537
0.381462
0.368727
0.365486
0.396194
0.351452
0.37493
0.349586
0.350196
0.378313
0.375445
0.354481
0.361673
0.356303
0.374141
0.369034
0.358903
0.354056
0.360654
0.37779
0.373545
0.373057
0.374773
0.386809
0.385094
0.375634
0.363245
0.344813
0.354377
0.377528
0.357932
0.353104
0.359347
0.374574
0.358636
0.368926
0.37218
0.369516
0.373862
0.381364
0.367041
0.3601
0.370912
0.37885
0.364115
0.374066
0.359407
0.361403
0.370231
0.364312
0.374206
0.366034
0.352225
0.363775
0.35425
0.373693
0.37458
0.362155
0.361541
0.364424
0.343071
0.364803
0.374272
0.36796
0.3627
0.370438
0.372357
0.368982
0.38203
0.364975
0.366376
0.371048
0.357346
0.358159
0.340779
0.337698
0.358393
0.389748
0.370202
0.368369
0.340364
0.354038
0.372362
0.382239
0.368252
0.369364
0.390233
0.370838
0.356489
0.37015
0.366858
0.346776
0.360894
0.366655
0.341297
0.368638
0.37088
0.362453
0.357121
0.376121
0.366264
0.376742
0.373506
0.390686
0.374498
0.356224
0.368619
0.363676
0.362034
0.376151
0.377037
0.354803
0.363567
0.354584
0.37201
0.385029
0.371262
0.373084
0.352086
0.340645
0.364589
0.371495
0.363902
0.367604
0.379141
0.358275
0.352805
0.355013
0.364013
0.368087
0.367367
0.385426
0.381701
0.37263
0.361932
0.347837
0.371893
0.367958
0.375893
0.372393
0.365441
0.360776
0.372284
0.344391
0.376217
0.373057
0.373558
0.370481
0.347576
0.358976
0.35425
0.369858
0.362949
0.368505
0.375394
0.369319
0.350607
0.36306
0.376689
0.3609
0.351127
0.369917
0.357158
0.364894
0.366946
0.372718
0.373492
0.378672
0.368649
0.3526
0.36799
0.37484
0.370503
0.361191
0.379444
0.370709
0.367756
0.350038
0.36125
0.361229
0.356889
0.375274
0.369742
0.358442
0.351342
0.360429
0.357653
0.372437
0.366199
0.350614
0.37109
0.373324
0.380705
0.348062
0.356627
0.393085
0.368583
0.371188
0.377215
0.360237
0.353569
0.370005
0.364749
0.361441
0.371542
0.370443
0.375718
0.358968
0.359032
0.361044
0.355181
0.37912
0.374934
0.359268
0.337652
0.365431
0.382079
0.368347
0.365869
0.354113
0.366194
0.367621
0.379048
0.374345
0.356681
0.369305
0.37763
0.372827
0.367061
0.377852
0.361272
0.357
0.369715
0.361544
0.384863
0.354558
0.354578
0.379221
0.374446
0.379385
0.353592
0.352179
0.370804
0.368572
0.384132
0.377827
0.372129
0.365576
0.353779
0.345502
0.353725
0.383991
0.379518
0.366436
0.38244
0.379405
0.357268
0.357139
0.358483
0.371019
0.361563
0.372336
0.35949
0.363198
0.378286
0.355573
0.35412
0.356914
0.371238
0.384914
0.36068
0.350611
0.353585
0.370584
0.373675
0.371947
0.36632
0.349456
0.369255
0.363555
0.365981
0.374614
0.354379
0.350191
0.365316
0.35709
0.369062
0.375807
0.365844
0.371445
0.374412
0.36207
0.375874
0.359747
0.381085
0.361573
0.385961
0.379806
0.359548
0.354507
0.35985
0.365033
0.370091
0.386593
0.366535
0.342823
0.353729
0.370154
0.354343
0.355147
0.376224
0.366081
0.351193
0.382945
0.387788
0.350506
0.376092
0.363986
0.37476
0.382915
0.382039
0.369462
0.363555
0.368665
0.359858
0.348891
0.373674
0.347408
0.364483
0.368653
0.334564
0.368847
0.391401
0.367691
0.355486
0.37708
0.37716
0.371965
0.367138
0.369775
0.3613
0.354301
0.370843
0.386176
0.373342
0.384509
0.362329
0.372876
0.373151
0.370487
0.362278
0.367048
0.371212
0.359589
0.363507
0.383709
0.376306
0.361852
0.369089
0.378408
0.376434
0.37168
0.355571
0.351644
0.38084
0.361425
0.37433
0.362605
0.359385
0.353256
0.357309
0.377575
0.379639
0.362163
0.363867
0.368993
0.336411
0.351267
0.366304
0.385268
0.381065
0.367796
0.374695
0.378146
0.361691
0.354213
0.348005
0.347975
0.351749
0.387943
0.356234
0.361064
0.37693
0.367371
0.373163
0.34753
0.360748
0.36068
0.360463
0.354184
0.37534
0.378814
0.360448
0.367194
0.356635
0.371159
0.366757
0.366528
0.366947
0.3851
0.35721
0.346634
0.36392
0.373418
0.37313
0.35035
0.369074
0.375968
0.363222
0.384287
0.384542
0.35827
0.356554
0.363881
0.385754
0.388448
0.369057
0.368691
0.352848
0.374978
0.367408
0.355388
0.347623
0.37279
0.385888
0.383459
0.351858
0.347596
0.37691
0.365937
0.356947
0.363494
0.36828
0.37338
0.363927
0.350258
0.360869
0.374524
0.367463
0.365359
0.369115
0.365026
0.365895
0.357921
0.354184
0.366411
0.369552
0.362561
0.363821
0.359119
0.382766
0.3585
0.360251
0.369054
0.359211
0.362872
0.424538
0.38241
0.370256
0.376869
0.369351
0.371598
0.371768
0.360608
0.374372
0.375777
0.356749
0.368556
0.37753
0.36772
0.364705
0.371689
0.368351
0.367834
0.36027
0.342
0.371431
0.379084
0.368407
0.35001
0.360673
0.378818
0.36546
0.371195
0.394467
0.383892
0.383449
0.365602
0.363688
0.36505
0.362919
0.363384
0.366914
0.356131
0.368856
0.36216
0.357009
0.359656
0.365755
0.36304
0.36202
0.349002
0.357406
0.365138
0.366691
0.362402
0.346347
0.378659
0.37175
0.388042
0.373008
0.337795
0.347855
0.367909
0.373429
0.367484
0.363255
0.36516
0.365089
0.383603
0.363114
0.366909
0.355969
0.353109
0.371925
0.358258
0.353492
0.379295
0.364426
0.362427
0.365782
0.372592
0.380135
0.36768
0.365355
0.378899
0.376645
0.372301
0.371732
0.357577
0.352406
0.361018
0.360356
0.371177
0.361469
0.367895
0.361513
0.363452
0.353308
0.352077
0.379328
0.365581
0.367124
0.364334
0.349049
0.341506
0.365517
0.387907
0.368388
0.356325
0.346514
0.38443
0.358835
0.359992
0.374491
0.368767
0.366012
0.373007
0.364442
0.372724
0.371639
0.37452
0.355332
0.364187
0.358374
0.355994
0.369494
0.373419
0.363464
0.37104
0.355709
0.372995
0.359995
0.361854
0.355807
0.357467
0.359971
0.360007
0.365427
0.362578
0.371774
0.371487
0.35493
0.356978
0.359346
0.348117
0.37939
0.369706
0.356507
0.359396
0.346986
0.385665
0.375144
0.368699
0.364938
0.369236
0.365938
0.366039
0.368021
0.375584
0.380539
0.376698
0.364762
0.356995
0.366861
0.357093
0.372307
0.356044
0.35965
0.354813
0.364709
0.357085
0.364995
0.370983
0.365022
0.33641
0.351783
0.363308
0.365624
0.385561
0.372069
0.366243
0.368733
0.366573
0.352505
0.3677
0.367917
0.377413
0.384136
0.367642
0.349957
0.362908
0.361239
0.365182
0.364974
0.373017
0.370082
0.364633
0.358686
0.35268
0.360712
0.37023
0.376265
0.367179
0.338186
0.386546
0.376161
0.356093
0.371922
0.377908
0.351426
0.382669
0.384713
0.373504
0.363701
0.372099
0.353848
0.345369
0.356903
0.360385
0.374112
0.373032
0.366106
0.371999
0.375044
0.366436
0.349322
0.371325
0.368696
0.354035
0.347963
0.367054
0.36407
0.368372
0.381246
0.375384
0.377615
0.356467
0.373647
0.372934
0.369524
0.354741
0.365183
0.37297
0.35357
0.351359
0.377896
0.359192
0.361784
0.367827
0.37544
0.365024
0.378407
0.365254
0.352829
0.353131
0.376253
0.383613
0.373587
0.356074
0.380476
0.367414
0.37154
0.372005
0.346299
0.365467
0.374118
0.378317
0.348171
0.372315
0.378009
0.374266
0.353632
0.359961
0.376614
0.378319
0.356532
0.371848
0.366322
0.361954
0.379426
0.393123
0.35896
0.36197
0.361603
0.361006
0.373075
0.373187
0.365387
0.377216
0.357357
0.343384
0.361144
0.368654
0.356643
0.382961
0.374362
0.371223
0.357666
0.367592
0.363722
0.379808
0.364051
0.354645
0.367107
0.375657
0.337893
0.367678
0.375049
0.367608
0.3611
0.372119
0.35955
0.371991
0.351072
0.369788
0.363075
0.373177
0.36888
0.361553
0.355513
0.362471
0.362432
0.358215
0.376056
0.389018
0.370662
0.344817
0.358538
0.353646
0.35956
0.363381
0.35407
0.376351
0.365094
0.353046
0.36604
0.385111
0.384679
0.379733
0.364716
0.362027
0.372347
0.366523
0.372491
0.37677
0.372433
0.353324
0.347515
0.367553
0.365365
0.367593
0.369992
0.365665
0.381619
0.368035
0.353028
0.351835
0.340378
0.35731
0.377714
0.398916
0.369146
0.367882
0.375665
0.34853
0.359645
0.350367
0.370248
0.351287
0.363318
0.374986
0.370034
0.372138
0.363269
0.363262
0.359248
0.360192
0.364192
0.368574
0.368733
0.357199
0.346291
0.342072
0.367103
0.37026
0.379032
0.380018
0.369443
0.360693
0.363283
0.380323
0.351831
0.350187
0.3462
0.367095
0.382419
0.351062
0.369436
0.374467
0.35624
0.357037
0.354721
0.380522
0.373218
0.361195
0.364828
0.359914
0.376385
0.371133
0.366679
0.377724
0.369866
0.371013
0.367286
0.373588
0.378863
0.364792
0.361578
0.379355
0.356395
0.356581
0.366672
0.344312
0.351608
0.382671
0.377456
0.374047
0.382892
0.371968
0.363994
0.373033
0.366067
0.359212
0.37715
0.373463
0.348514
0.378946
0.354235
0.369085
0.36094
0.369118
0.377547
0.357242
0.36535
0.364414
0.358076
0.374449
0.376085
0.364148
0.356248
0.361121
0.371206
0.353262
0.37246
0.369637
0.358321
0.349551
0.374692
0.366206
0.366262
0.370468
0.375056
0.360185
0.360524
0.355515
0.359212
0.363468
0.36936
0.376794
0.365807
0.351944
0.378906
0.377227
0.378841
0.372616
0.354167
0.356359
0.362472
0.386109
0.379155
0.372951
0.336328
0.365916
0.376301
0.358339
0.360235
0.382237
0.348017
0.363685
0.372804
0.36773
0.362308
0.362386
0.371224
0.350041
0.368936
0.368382
0.356474
0.369783
0.356675
0.366052
0.355213
0.362294
0.373081
0.346075
0.350258
0.36255
0.36439
0.357849
0.361609
0.377922
0.355067
0.377511
0.37683
0.374971
0.374355
0.350347
0.357105
0.372088
0.370688
0.375473
0.37291
0.379426
0.36275
0.336543
0.368124
0.362968
0.378223
0.378893
0.356198
0.347387
0.357221
0.361591
0.361474
0.375625
0.3509
0.353809
0.375787
0.37191
0.371934
0.354369
0.36638
0.367619
0.350339
0.364261
0.375438
0.373505
0.36535
0.361827
0.373408
0.362966
0.361116
0.370828
0.371211
0.358247
0.356527
0.378676
0.390703
0.376435
0.350545
0.342682
0.373893
0.364163
0.36606
0.352628
0.368845
0.359871
0.367371
0.375705
0.360124
0.365989
0.355153
0.371233
0.383404
0.36336
0.343937
0.36334
0.394946
0.362449
0.369826
0.363385
0.372888
0.355516
0.35417
0.387211
0.369878
0.36415
0.340161
0.364899
0.377803
0.373587
0.386936
0.370074
0.356604
0.35365
0.357259
0.372409
0.384516
0.371512
0.363354
0.361631
0.356789
0.363377
0.370349
0.37542
0.361239
0.368677
0.3679
0.361858
0.360843
0.363468
0.369697
0.369529
0.38826
0.373476
0.359143
0.360542
0.36447
0.381408
0.362453
0.356201
0.371725
0.362096
0.376293
0.370629
0.377896
0.365536
0.36379
0.370126
0.371926
0.372296
0.378053
0.373263
0.381801
0.37268
0.352388
0.33514
0.361693
0.391345
0.363891
0.353864
0.361781
0.38016
0.37757
0.38518
0.370465
0.363558
0.367569
0.383653
0.368098
0.353164
0.363139
0.400062
0.383198
0.370052
0.363669
0.357448
0.348645
0.381582
0.360281
0.357404
0.374405
0.380034
0.362444
0.347239
0.363989
0.364783
0.36369
0.369946
0.351514
0.383805
0.368821
SCALARS Coverage1 float 1
LOOKUP_TABLE default
0.163866
0.163866
0.147564
0.174883
0.180683
0.180657
0.208639
0.185315
0.176969
0.167741
0.165551
0.166709
0.204255
0.19751
0.179267
0.183846
0.176651
0.169671
0.17512
0.1852
0.173841
0.153594
0.169861
0.177058
0.175375
0.193653
0.196845
0.16671
0.173575
0.151535
0.190579
0.193461
0.196901
0.209858
0.217953
0.212672
0.182745
0.168641
0.170419
0.185121
0.174959
0.174908
0.185683
0.188997
0.188666
0.184724
0.168658
0.180903
0.19694
0.200745
0.18468
0.163214
0.177105
0.169685
0.189268
0.20957
0.205772
0.191797
0.188146
0.215711
0.177962
0.191475
0.210562
0.175834
0.165724
0.193415
0.193415
0.17165
0.175423
0.196377
0.190447
0.162283
0.172146
0.17062
0.171003
0.162018
0.175893
0.204926
0.202166
0.181835
0.201374
0.183656
0.1961
0.208038
0.203474
0.178893
0.173972
0.167518
0.17355
0.191298
0.192111
0.202033
0.192077
0.193478
0.184708
0.188178
0.166353
0.165877
0.189249
0.193127
0.194838
0.178815
0.192671
0.193079
0.170732
0.202532
0.166442
0.164134
0.179947
0.173901
0.1731
0.173849
0.166961
0.175645
0.190433
0.198908
0.180369
0.177833
0.162962
0.176766
0.214915
0.215298
0.189039
0.167535
0.162026
0.17679
0.168891
0.18782
0.161313
0.174485
0.179604
0.157892
0.178731
0.184384
0.194039
0.191629
0.183634
0.172229
0.176311
0.184613
0.184783
0.200731
0.195202
0.200688
0.198757
0.173696
0.162021
0.191978
0.18048
0.15682
0.155583
0.162324
0.162324
0.171975
0.183252
0.17456
0.194098
0.190317
0.199594
0.17445
0.19047
0.166634
0.158313
0.189817
0.182883
0.169024
0.179783
0.192386
0.198014
0.18424
0.186184
0.19633
0.179791
0.17165
0.160981
0.176128
0.188701
0.211582
0.183477
0.16522
0.192815
0.18556
0.198569
0.190624
0.189755
0.194482
0.175271
0.180174
0.216093
0.184252
0.185965
0.185696