# vtk DataFile Version 2.0
2D Surface
ASCII
DATASET UNSTRUCTURED_GRID
POINTS 2779 float
7.0585e-05 -3.033e-05 0. 
7.065e-05 -3.03361e-05 0. 
7.074e-05 -3.03423e-05 0. 
7.083e-05 -3.03447e-05 0. 
7.092e-05 -3.03444e-05 0. 
7.101e-05 -3.03455e-05 0. 
7.11e-05 -3.03456e-05 0. 
7.119e-05 -3.0347e-05 0. 
7.128e-05 -3.03487e-05 0. 
7.137e-05 -3.03508e-05 0. 
7.146e-05 -3.03642e-05 0. 
7.155e-05 -3.0366e-05 0. 
7.164e-05 -3.03695e-05 0. 
7.173e-05 -3.0376e-05 0. 
7.182e-05 -3.03798e-05 0. 
7.191e-05 -3.03842e-05 0. 
7.2e-05 -3.03877e-05 0. 
7.209e-05 -3.03848e-05 0. 
7.218e-05 -3.03886e-05 0. 
7.227e-05 -3.03881e-05 0. 
7.236e-05 -3.03922e-05 0. 
7.245e-05 -3.03871e-05 0. 
7.254e-05 -3.03929e-05 0. 
7.263e-05 -3.03947e-05 0. 
7.272e-05 -3.0393e-05 0. 
7.281e-05 -3.04038e-05 0. 
7.29e-05 -3.0413e-05 0. 
7.299e-05 -3.04085e-05 0. 
7.308e-05 -3.04105e-05 0. 
7.317e-05 -3.04092e-05 0. 
7.326e-05 -3.0411e-05 0. 
7.335e-05 -3.04038e-05 0. 
7.344e-05 -3.03991e-05 0. 
7.353e-05 -3.03956e-05 0. 
7.362e-05 -3.0402e-05 0. 
7.371e-05 -3.04035e-05 0. 
7.38e-05 -3.04065e-05 0. 
7.389e-05 -3.04074e-05 0. 
7.398e-05 -3.04053e-05 0. 
7.407e-05 -3.04008e-05 0. 
7.416e-05 -3.03977e-05 0. 
7.425e-05 -3.04074e-05 0. 
7.434e-05 -3.04021e-05 0. 
7.443e-05 -3.04022e-05 0. 
7.452e-05 -3.03989e-05 0. 
7.461e-05 -3.03995e-05 0. 
7.47e-05 -3.04055e-05 0. 
7.479e-05 -3.0404e-05 0. 
7.488e-05 -3.04065e-05 0. 
7.497e-05 -3.04058e-05 0. 
7.506e-05 -3.04018e-05 0. 
7.515e-05 -3.03953e-05 0. 
7.524e-05 -3.03976e-05 0. 
7.533e-05 -3.03928e-05 0. 
7.542e-05 -3.03978e-05 0. 
7.551e-05 -3.04029e-05 0. 
7.56e-05 -3.04054e-05 0. 
7.569e-05 -3.04012e-05 0. 
7.578e-05 -3.04016e-05 0. 
7.587e-05 -3.04007e-05 0. 
7.596e-05 -3.03972e-05 0. 
7.605e-05 -3.03996e-05 0. 
7.614e-05 -3.03966e-05 0. 
7.623e-05 -3.03948e-05 0. 
7.632e-05 -3.03915e-05 0. 
7.641e-05 -3.0387e-05 0. 
7.65e-05 -3.03927e-05 0. 
7.659e-05 -3.03916e-05 0. 
7.668e-05 -3.0396e-05 0. 
7.677e-05 -3.0392e-05 0. 
7.686e-05 -3.0393e-05 0. 
7.695e-05 -3.03952e-05 0. 
7.704e-05 -3.03933e-05 0. 
7.713e-05 -3.03961e-05 0. 
7.722e-05 -3.03949e-05 0. 
7.731e-05 -3.03942e-05 0. 
7.74e-05 -3.03916e-05 0. 
7.749e-05 -3.03878e-05 0. 
7.758e-05 -3.03881e-05 0. 
7.767e-05 -3.03909e-05 0. 
7.776e-05 -3.03924e-05 0. 
7.785e-05 -3.03867e-05 0. 
7.794e-05 -3.03919e-05 0. 
7.803e-05 -3.03922e-05 0. 
7.812e-05 -3.03901e-05 0. 
7.821e-05 -3.03923e-05 0. 
7.83e-05 -3.03947e-05 0. 
7.839e-05 -3.03887e-05 0. 
7.848e-05 -3.03872e-05 0. 
7.857e-05 -3.03842e-05 0. 
7.866e-05 -3.03895e-05 0. 
7.875e-05 -3.03895e-05 0. 
7.884e-05 -3.03862e-05 0. 
7.893e-05 -3.03753e-05 0. 
7.902e-05 -3.03742e-05 0. 
7.911e-05 -3.03691e-05 0. 
7.92e-05 -3.03656e-05 0. 
7.929e-05 -3.03651e-05 0. 
7.938e-05 -3.0355e-05 0. 
7.947e-05 -3.03489e-05 0. 
7.956e-05 -3.03458e-05 0. 
7.965e-05 -3.03424e-05 0. 
7.974e-05 -3.03334e-05 0. 
7.98061e-05 -3.033e-05 0. 
6.80961e-05 -3.024e-05 0. 
6.813e-05 -3.02417e-05 0. 
6.822e-05 -3.025e-05 0. 
6.831e-05 -3.02535e-05 0. 
6.84e-05 -3.02605e-05 0. 
6.849e-05 -3.02597e-05 0. 
6.858e-05 -3.02601e-05 0. 
6.867e-05 -3.02634e-05 0. 
6.876e-05 -3.02684e-05 0. 
6.885e-05 -3.02704e-05 0. 
6.894e-05 -3.02724e-05 0. 
6.903e-05 -3.02752e-05 0. 
6.912e-05 -3.02782e-05 0. 
6.921e-05 -3.02872e-05 0. 
6.93e-05 -3.02859e-05 0. 
6.939e-05 -3.02893e-05 0. 
6.948e-05 -3.02867e-05 0. 
6.957e-05 -3.02929e-05 0. 
6.966e-05 -3.0292e-05 0. 
6.975e-05 -3.02968e-05 0. 
6.984e-05 -3.02959e-05 0. 
6.993e-05 -3.0297e-05 0. 
7.002e-05 -3.03035e-05 0. 
7.011e-05 -3.03052e-05 0. 
7.02e-05 -3.03172e-05 0. 
7.029e-05 -3.03148e-05 0. 
7.038e-05 -3.03166e-05 0. 
7.047e-05 -3.03208e-05 0. 
7.056e-05 -3.03277e-05 0. 
7.983e-05 -3.03288e-05 0. 
7.992e-05 -3.03194e-05 0. 
8.001e-05 -3.03145e-05 0. 
8.01e-05 -3.03082e-05 0. 
8.019e-05 -3.03074e-05 0. 
8.028e-05 -3.03069e-05 0. 
8.037e-05 -3.03036e-05 0. 
8.046e-05 -3.03019e-05 0. 
8.055e-05 -3.02998e-05 0. 
8.064e-05 -3.03026e-05 0. 
8.073e-05 -3.02993e-05 0. 
8.082e-05 -3.02916e-05 0. 
8.091e-05 -3.02847e-05 0. 
8.1e-05 -3.02827e-05 0. 
8.109e-05 -3.02802e-05 0. 
8.118e-05 -3.02663e-05 0. 
8.127e-05 -3.02603e-05 0. 
8.136e-05 -3.02549e-05 0. 
8.145e-05 -3.02564e-05 0. 
8.154e-05 -3.0254e-05 0. 
8.163e-05 -3.02469e-05 0. 
8.172e-05 -3.02446e-05 0. 
8.181e-05 -3.02432e-05 0. 
8.18437e-05 -3.024e-05 0. 
6.63933e-05 -3.015e-05 0. 
6.642e-05 -3.0153e-05 0. 
6.651e-05 -3.01605e-05 0. 
6.66e-05 -3.0161e-05 0. 
6.669e-05 -3.01607e-05 0. 
6.678e-05 -3.01626e-05 0. 
6.687e-05 -3.01714e-05 0. 
6.696e-05 -3.0179e-05 0. 
6.705e-05 -3.01884e-05 0. 
6.714e-05 -3.0184e-05 0. 
6.723e-05 -3.01913e-05 0. 
6.732e-05 -3.02015e-05 0. 
6.741e-05 -3.02084e-05 0. 
6.75e-05 -3.02137e-05 0. 
6.759e-05 -3.0216e-05 0. 
6.768e-05 -3.02209e-05 0. 
6.777e-05 -3.0219e-05 0. 
6.786e-05 -3.02224e-05 0. 
6.795e-05 -3.02338e-05 0. 
6.804e-05 -3.02372e-05 0. 
8.19e-05 -3.02346e-05 0. 
8.199e-05 -3.02248e-05 0. 
8.208e-05 -3.02259e-05 0. 
8.217e-05 -3.02198e-05 0. 
8.226e-05 -3.02135e-05 0. 
8.235e-05 -3.0212e-05 0. 
8.244e-05 -3.02117e-05 0. 
8.253e-05 -3.02061e-05 0. 
8.262e-05 -3.02074e-05 0. 
8.271e-05 -3.02082e-05 0. 
8.28e-05 -3.02038e-05 0. 
8.289e-05 -3.01931e-05 0. 
8.298e-05 -3.01896e-05 0. 
8.307e-05 -3.01853e-05 0. 
8.316e-05 -3.01787e-05 0. 
8.325e-05 -3.01725e-05 0. 
8.334e-05 -3.01664e-05 0. 
8.343e-05 -3.01607e-05 0. 
8.352e-05 -3.01554e-05 0. 
8.361e-05 -3.0151e-05 0. 
8.36227e-05 -3.015e-05 0. 
6.47578e-05 -3.006e-05 0. 
6.48e-05 -3.00625e-05 0. 
6.48832e-05 -3.006e-05 0. 
6.48953e-05 -3.006e-05 0. 
6.498e-05 -3.00633e-05 0. 
6.507e-05 -3.00756e-05 0. 
6.516e-05 -3.00775e-05 0. 
6.525e-05 -3.00807e-05 0. 
6.534e-05 -3.00855e-05 0. 
6.543e-05 -3.00928e-05 0. 
6.552e-05 -3.00914e-05 0. 
6.561e-05 -3.00987e-05 0. 
6.57e-05 -3.01026e-05 0. 
6.579e-05 -3.01073e-05 0. 
6.588e-05 -3.01115e-05 0. 
6.597e-05 -3.01162e-05 0. 
6.606e-05 -3.01162e-05 0. 
6.615e-05 -3.01265e-05 0. 
6.624e-05 -3.01335e-05 0. 
6.633e-05 -3.0143e-05 0. 
8.37e-05 -3.01441e-05 0. 
8.379e-05 -3.01354e-05 0. 
8.388e-05 -3.01329e-05 0. 
8.397e-05 -3.01326e-05 0. 
8.406e-05 -3.01212e-05 0. 
8.415e-05 -3.01144e-05 0. 
8.424e-05 -3.01097e-05 0. 
8.433e-05 -3.01005e-05 0. 
8.442e-05 -3.00885e-05 0. 
8.451e-05 -3.00835e-05 0. 
8.46e-05 -3.00782e-05 0. 
8.469e-05 -3.00701e-05 0. 
8.478e-05 -3.00671e-05 0. 
8.487e-05 -3.00613e-05 0. 
8.48863e-05 -3.006e-05 0. 
6.35904e-05 -2.997e-05 0. 
6.363e-05 -2.99728e-05 0. 
6.372e-05 -2.99766e-05 0. 
6.381e-05 -2.9986e-05 0. 
6.39e-05 -2.99927e-05 0. 
6.399e-05 -3.00025e-05 0. 
6.408e-05 -3.00108e-05 0. 
6.417e-05 -3.00184e-05 0. 
6.426e-05 -3.00249e-05 0. 
6.435e-05 -3.00305e-05 0. 
6.444e-05 -3.00409e-05 0. 
6.453e-05 -3.00506e-05 0. 
6.462e-05 -3.00521e-05 0. 
6.471e-05 -3.00571e-05 0. 
6.489e-05 -3.00598e-05 0. 
8.496e-05 -3.00543e-05 0. 
8.505e-05 -3.0047e-05 0. 
8.514e-05 -3.00371e-05 0. 
8.523e-05 -3.00331e-05 0. 
8.532e-05 -3.00332e-05 0. 
8.541e-05 -3.00281e-05 0. 
8.55e-05 -3.0017e-05 0. 
8.559e-05 -3.00097e-05 0. 
8.568e-05 -3.00053e-05 0. 
8.577e-05 -2.99986e-05 0. 
8.586e-05 -2.99902e-05 0. 
8.595e-05 -2.9981e-05 0. 
8.604e-05 -2.99734e-05 0. 
8.60878e-05 -2.997e-05 0. 
6.27162e-05 -2.988e-05 0. 
6.273e-05 -2.98815e-05 0. 
6.282e-05 -2.98976e-05 0. 
6.291e-05 -2.99082e-05 0. 
6.3e-05 -2.99154e-05 0. 
6.309e-05 -2.99199e-05 0. 
6.318e-05 -2.99328e-05 0. 
6.327e-05 -2.99416e-05 0. 
6.336e-05 -2.9945e-05 0. 
6.345e-05 -2.99556e-05 0. 
6.354e-05 -2.99665e-05 0. 
8.613e-05 -2.9967e-05 0. 
8.622e-05 -2.9959e-05 0. 
8.631e-05 -2.99515e-05 0. 
8.64e-05 -2.99452e-05 0. 
8.649e-05 -2.99354e-05 0. 
8.658e-05 -2.9921e-05 0. 
8.667e-05 -2.99127e-05 0. 
8.676e-05 -2.99027e-05 0. 
8.685e-05 -2.98983e-05 0. 
8.694e-05 -2.98914e-05 0. 
8.703e-05 -2.98907e-05 0. 
8.712e-05 -2.98866e-05 0. 
8.71861e-05 -2.988e-05 0. 
6.19348e-05 -2.979e-05 0. 
6.201e-05 -2.98101e-05 0. 
6.21e-05 -2.98166e-05 0. 
6.219e-05 -2.98331e-05 0. 
6.228e-05 -2.98449e-05 0. 
6.237e-05 -2.98557e-05 0. 
6.246e-05 -2.9858e-05 0. 
6.255e-05 -2.98656e-05 0. 
6.264e-05 -2.98717e-05 0. 
8.721e-05 -2.98776e-05 0. 
8.73e-05 -2.98699e-05 0. 
8.739e-05 -2.986e-05 0. 
8.748e-05 -2.98509e-05 0. 
8.757e-05 -2.98358e-05 0. 
8.766e-05 -2.98178e-05 0. 
8.775e-05 -2.9806e-05 0. 
8.784e-05 -2.97964e-05 0. 
8.78873e-05 -2.979e-05 0. 
6.16262e-05 -2.97e-05 0. 
6.165e-05 -2.97238e-05 0. 
6.174e-05 -2.97377e-05 0. 
6.183e-05 -2.97786e-05 0. 
6.192e-05 -2.9786e-05 0. 
8.793e-05 -2.97842e-05 0. 
8.802e-05 -2.97716e-05 0. 
8.811e-05 -2.97561e-05 0. 
8.82e-05 -2.97279e-05 0. 
8.829e-05 -2.97082e-05 0. 
8.8307e-05 -2.97e-05 0. 
6.15446e-05 -2.961e-05 0. 
6.156e-05 -2.96269e-05 0. 
8.838e-05 -2.96642e-05 0. 
8.8433e-05 -2.961e-05 0. 
6.15097e-05 -2.952e-05 0. 
8.847e-05 -2.95437e-05 0. 
8.84832e-05 -2.952e-05 0. 
6.15055e-05 -2.943e-05 0. 
8.84944e-05 -2.943e-05 0. 
6.15053e-05 -2.934e-05 0. 
8.84948e-05 -2.934e-05 0. 
6.15052e-05 -2.925e-05 0. 
8.84977e-05 -2.925e-05 0. 
6.15056e-05 -2.916e-05 0. 
8.8499e-05 -2.916e-05 0. 
6.15033e-05 -2.907e-05 0. 
8.84987e-05 -2.907e-05 0. 
6.15075e-05 -2.898e-05 0. 
8.84987e-05 -2.898e-05 0. 
6.15064e-05 -2.889e-05 0. 
8.84981e-05 -2.889e-05 0. 
6.15053e-05 -2.88e-05 0. 
8.84965e-05 -2.88e-05 0. 
6.15021e-05 -2.871e-05 0. 
8.84957e-05 -2.871e-05 0. 
6.15007e-05 -2.862e-05 0. 
8.84984e-05 -2.862e-05 0. 
6.14991e-05 -2.853e-05 0. 
8.85005e-05 -2.853e-05 0. 
6.15003e-05 -2.844e-05 0. 
8.84995e-05 -2.844e-05 0. 
6.15009e-05 -2.835e-05 0. 
8.85022e-05 -2.835e-05 0. 
6.14959e-05 -2.826e-05 0. 
8.84988e-05 -2.826e-05 0. 
6.14933e-05 -2.817e-05 0. 
8.8496e-05 -2.817e-05 0. 
6.14867e-05 -2.808e-05 0. 
8.85019e-05 -2.808e-05 0. 
6.14889e-05 -2.799e-05 0. 
8.84993e-05 -2.799e-05 0. 
6.14904e-05 -2.79e-05 0. 
8.85057e-05 -2.79e-05 0. 
6.14872e-05 -2.781e-05 0. 
8.8507e-05 -2.781e-05 0. 
6.14933e-05 -2.772e-05 0. 
8.85091e-05 -2.772e-05 0. 
6.14809e-05 -2.763e-05 0. 
8.85062e-05 -2.763e-05 0. 
6.14786e-05 -2.754e-05 0. 
8.85092e-05 -2.754e-05 0. 
6.14897e-05 -2.745e-05 0. 
8.85087e-05 -2.745e-05 0. 
6.14863e-05 -2.736e-05 0. 
8.85134e-05 -2.736e-05 0. 
[...]
POINT_DATA 2779
SCALARS Coverage0 float 1
LOOKUP_TABLE default
0.211691
0.244811
0.24437
0.223135
0.227337
0.260326
0.263099
0.26101
0.236799
0.221673
0.244383
0.231306
0.221681
0.21823
0.234538
0.231494
0.243424
0.249959
0.247865
0.23356
0.24258
0.259144
0.25087
0.253872
0.25932
0.251015
0.238491
0.246083
0.256658
0.243799
0.237356
0.245445
0.2198
0.212286
0.241878
0.226669
0.199755
0.231987
0.234176
0.230297
0.243936
0.257103
0.252325
0.231518
0.237613
0.252198
0.209812
0.228654
0.256251
0.227384
0.213263
0.200251
0.214054
0.218396
0.235479
0.254123
0.227283
0.209029
0.21947
0.245237
0.245127
0.234093
0.20773
0.239865
0.254729
0.222023
0.209725
0.201747
0.226063
0.240783
0.257917
0.245843
0.231796
0.224125
0.228192
0.254305
0.233976
0.235697
0.219295
0.240573
0.234572
0.241091
0.214718
0.226794
0.217882
0.212657
0.248968
0.229848
0.240235
0.227284
0.24408
0.23668
0.232398
0.226345
0.233978
0.241229
0.210182
0.190465
0.233472
0.250877
0.241544
0.229643
0.233422
0.225783
0.208295
0.208295
0.224595
0.213115
0.210186
0.205754
0.187903
0.199319
0.212841
0.212598
0.233902
0.229466
0.217758
0.23436
0.21611
0.227017
0.22474
0.233094
0.259883
0.267833
0.215857
0.215958
0.228145
0.212464
0.212969
0.204293
0.233752
0.206173
0.211691
0.225783
0.226908
0.244266
0.237338
0.225768
0.233495
0.246351
0.238004
0.252241
0.263491
0.223742
0.227765
0.253471
0.248367
0.220136
0.207615
0.231986
0.227875
0.218921
0.228045
0.252321
0.254457
0.216874
0.216874
0.237785
0.237785
0.23521
0.237184
0.204303
0.215273
0.205764
0.178625
0.21047
0.222066
0.21844
0.236971
0.246519
0.268743
0.240259
0.223952
0.215909
0.233923
0.224155
0.193216
0.234895
0.239012
0.203093
0.201788
0.217095
0.20532
0.217542
0.231388
0.22048
0.234423
0.251228
0.264939
0.216237
0.200253
0.22692
0.217939
0.208104
0.226128
0.194194
0.203936
0.203936
0.21686
0.21686
0.243066
0.243066
0.22226
0.217274
0.209028
0.212114
0.221964
0.223507
0.220527
0.228726
0.205794
0.23525
0.219137
0.229855
0.227805
0.232653
0.243177
0.221017
0.241045
0.237738
0.236972
0.211952
0.204408
0.202243
0.217385
0.218846
0.202039
0.208996
0.20696
0.212758
0.216405
0.22227
0.22227
0.227316
0.227316
0.231468
0.225965
0.230183
0.218591
0.193394
0.200416
0.216513
0.235662
0.220987
0.227411
0.232909
0.222219
0.243066
0.238778
0.225356
0.233352
0.250379
0.218312
0.201988
0.211039
0.214349
0.254569
0.227666
0.226934
0.218358
0.217584
0.220731
0.206123
0.206123
0.212053
0.193016
0.19614
0.199156
0.210064
0.231677
0.234454
0.215715
0.209599
0.220731
0.247982
0.236692
0.212225
0.218675
0.241377
0.239551
0.220082
0.222357
0.198456
0.215649
0.227656
0.232489
0.232387
0.230627
0.213006
0.224018
0.227115
0.207236
0.207338
0.208331
0.184847
0.232489
0.220231
0.21782
0.222148
0.269092
0.208337
0.237548
0.228294
0.215535
0.294154
0.294154
0.221667
0.226635
0.232387
0.215535
0.25343
0.251846
0.212431
0.256934
0.256934
0.41325
0.41325
0.294613
0.400246
0.673847
0.605935
0.605935
0.861506
0.847727
0.971541
0.882776
0.933854
0.911312
0.72888
0.967644
0.644572
0.989021
0.604095
0.985436
0.967911
0.995759
0.940621
0.989005
0.966674
0.936223
0.936019
0.692596
0.6183
0.846584
0.95626
0.77879
0.977252
0.957812
0.892117
0
0.880122
0.86015
0.836077
0.953147
0.752728
0.903331
0.828877
0.906184
0.997827
0.875248
0.870268
0.987213
0.829881
0.958796
0
0.974252
0
0.956884
0.935172
0.96704
0.830728
0.998069
0.918934
0.895708
0.991009
0.865186
1
0.869115
1
0.964223
1
0.946625
0.970575
0.945441
0.875558
0.880268
0.929657
0.922054
0
0.862098
0.814145
0.920123
0.887712
0.764907
0.887197
0.887712
0
0.729057
0.865528
1
0.433655
1
0.426881
0
0
1
0.999817
1
0
0.613404
0.908803
0.937789
0.933219
0.936537
0.951511
0.860469
0.897434
0.951511
1
0.989519
0
0.896808
1
0
0.988378
0
0
0
0
0
0
0.932168
0.94512
0.94512
0.964497
0
0.936577
0.956835
0
0.992205
0.999715
0.983703
0.983703
0.892467
0.8271
0.983703
0.908014
0.835001
0.926841
0.666043
0.971621
0.700697
0.943144
0.65553
0.991938
0
0.993412
0
0.838331
0
0.798089
1
0.627319
0
0.627319
0.786938
0
0
1
0
0
0.952044
0.952044
0
0.818718
0.847557
0.952044
0.826601
0.84759
0
0
0.726195
0
1
0.940704
1
0.859412
0
0.875056
0
0
0.875056
0
0
0.993482
0.993482
0
0.993482
0.78989
0
0.903593
0
0
0.889974
0.897718
1
0.86534
0
0
0.939078
1
0.94197
0.974233
0.975593
0.784563
1
1
1
0.784563
0
0
0
0.961016
0
0.960988
1
1
0.842641
0.842641
1
1
1
1
0.729299
1
1
0.729299
1
0
0
0.993759
0
1
1
0
0
0
0
1
0
1
0
0
0
1
1
1
0.90284
0
0.672736
1
0.807496
0.672736
1
1
1
1
1
0.965779
0.955647
1
0.862168
0.862168
0.965779
0.980649
0.980649
1
1
0.980649
0.717058
0.717058
1
0.949649
0.949649
0.717058
0.694119
0.807015
0.807015
0.949649
0.694119
0.773811
0.807015
0.851771
0
0.934456
0.851771
0
0.89941
1
0
0
0.993665
0.993665
0
1
0.993665
0.755382
0.843394
0.856776
1
1
0.856776
0
1
1
1
0
0
0
0
0.790347
0
0
1
0
1
0.756232
0
0
0
0
1
1
1
0
0
0
1
0.817262
0.817262
0.727624
0.735506
0.719637
0.709017
0.719637
0
1
0.709017
0.952135
0.952135
0
0
1
1
0.952135
0.778777
0.778777
0.853433
1
0.754253
1
1
0
0
1
0
1
0
0.87803
0.87803
1
0.87803
1
0
1
1
0
1
0.981896
0.981896
0
1
0.981896
1
1
0
1
0
0.781585
0.972522
0.943517
0
1
0
0
0.943517
1
1
1
1
1
1
1
1
1
0.916113
0
0.916113
0.532625
0
1
1
1
0
0
1
0
0.793535
0.773423
0.773423
0.830206
0.793535
0.773423
0.741676
0.938281
0.754547
0.754547
1
0
0.938281
1
1
0.974299
0.974299
0.73889
1
0.974299
0.73889
0.739453
1
0.739453
1
1
1
1
1
1
1
1
0
1
1
1
1
1
1
0
1
0
1
0.840137
0.840137
0
0.840137
1
0
1
1
1
1
0
0.906044
0.906044
0
0.923969
0.923969
0.906044
1
0
0
0.987532
0.786599
0.923969
1
1
1
0
1
1
1
1
0
0.838393
0.838393
1
0.705446
0.838393
0.995641
1
0
0
0.995641
0
0
1
1
1
1
0
1
0
1
1
1
1
0
1
0.982914
0.982914
1
0
0.906809
0.906809
0.982914
0
1
1
0.780631
0.780631
0.382717
0.906809
0
0
1
0.780631
0.859685
0.957661
0.957661
0.805026
0.805026
0.957661
0
0
0
0.799109
1
1
0
0
0
1
0
1
1
1
0
1
1
1
1
1
0.708822
0.708822
0
1
1
1
1
1
0.708822
0.841511
0.841511
0.790815
1
0
0
0
0
0.790815
1
0
0
0.99676
0.99676
1
1
1
0
0
0.99676
0.818667
1
1
0.823097
0.823097
1
1
1
0
0
1
0.989577
0.989577
0
1
1
0.989577
0
0
0.751577
0
0.956908
0
0
0
0.956908
1
1
0
1
0
0.743177
0.743177
0.884253
1
1
0.743177
1
1
1
0
0
1
0.984382
0.903197
0.903197
0
0
0
0
0.906399
0.984382
0.903197
0
0
0
0
0.906399
0
0
0
1
0.974054
0.974054
1
1
0.974054
0.759705
1
0
0.759705
0
0
0.881072
0
0.905354
1
0
0
0.905354
1
0
1
0
1
0
1
1
0.86654
1
1
0.926877
0.926877
1
1
0
0
1
0.974213
0.974213
1
1
0.974213
0
1
1
0
1
1
1
0.963693
0.963693
1
0.817863
0.817863
0.963693
1
1
0.82208
0.932718
0.932718
1
0
1
0.932718
0.900522
1
0.900522
0
0
1
0.981295
0.981295
0
0
1
0.981295
0.825847
0
0.825847
0.836248
1
1
0
1
1
1
0
0
1
1
1
0
1
1
0
0
0.980329
0.980329
0.829953
0.789521
0.980329
0.829953
1
0
0.789521
0
0
0.823448
1
1
0.823448
1
0
0.977962
0.977962
0
0.864798
0.977962
0
0
0.807799
0.988909
0.988909
0.790597
0.790597
0.988909
1
0
0
1
0
0
0
0
1
0
0
1
0
0
0
1
1
0.85309
1
0.85309
1
1
1
1
0
0.996435
0.996435
0
1
1
1
0.980543
0.996435
1
1
1
0.979269
0
0
0
0
0.979269
0
1
1
1
1
0
1
1
0
1
0
1
1
0
0.897797
0
0
0
1
0
0
0
0
1
1
1
1
0.942155
1
0.942155
0
0.695673
0.942155
1
1
0
0.695673
0
0
1
1
1
0.683403
1
1
1
1
1
0.683403
0.997906
0.997906
0.832885
1
0.997906
0.832885
0.708687
0.708687
0
0.708687
0.770744
1
0.770744
1
1
1
1
0
0
1
0.647858
0
1
1
1
0
0.647858
1
0
0
0.731037
0.731037
1
0
0
0.731037
0.567074
0
0
0.998792
0.998792
0.567074
0
0
0
0
0
0.998792
1
1
1
1
1
1
0
0.705829
0.705829
0
0
1
0.783102
1
0.783102
0.705829
0
0
0
0.720927
0.783102
1
1
1
1
1
0.720927
0
0
1
0
0
1
1
0
1
1
0.982305
0.982305
1
0
0.982305
0.74092
0.90888
1
1
0
1
1
0
1
1
1
1
1
1
0.814885
0.814885
1
1
0.775739
0.789146
0.814885
0.99799
0.99799
1
0
0
0
0.99799
0.726643
1
1
1
1
1
0.879001
0.997307
1
1
0.879001
0.756158
0
0.813506
0
0.838228
0.838228
0.817953
0.995587
0.995587
0.843394
0.843394
0
0.817953
0.995587
0
0
1
0
0.274662
0.274662
1
0
1
0.274662
1
0
0
0
0
0
0.848021
0
0.987131
0.987131
0.853323
0.853323
1
0.987131
1
0
1
1
1
1
1
1
1
1
1
0
0
0.994918
0.994918
0.869332
0.869332
0.872584
0.994918
0.869332
0.524609
0.524609
0
0
1
0.872584
1
0
0
0.961282
0.961282
0.459197
0
0
0.961282
0.459197
0.451882
0.451882
1
1
0
0.891015
1
1
0.857548
0
0.841337
1
1
1
0.839331
0
1
1
0
0
0
0.580701
0.580701
0.580701
1
0
1
0.580701
0.89443
1
1
0.909368
1
0.909368
0.847466
0.825448
0.825448
0.909368
0.847466
1
0.867473
0.65612
1
1
0.867473
0.65612
1
1
0
0.99319
0.99319
0.993755
0.993755
1
0.817614
0.817614
0.574731
0.99319
0.993755
0.737518
0.737518
1
0.805511
0
0.964658
0.964658
0.776006
0.762714
0.762714
0.39342
0.964658
0
0.762714
0.641716
0.704114
0.359266
0.38745
0.363074
0.365406
0.369784
0.367178
0.359413
0.358982
0.337352
0.366619
0.375864
0.374242
0.382915
0.364997
0.34765
0.378008
0.373196
0.360629
0.372005
0.370783
0.359322
0.387535
0.372027
0.350093
0.332958
0.355002
0.367481
0.353157
0.380173
0.377759
0.37812
0.368274
0.367799
0.357244
0.3755
0.363
0.353129
0.383202
0.3743
0.373188
0.379098
0.384329
0.367209
0.363887
0.359068
0.360243
0.379866
0.375726
0.353343
0.368035
0.367871
0.358938
0.373
0.389233
0.38144
0.364584
0.356116
0.359764
0.36308
0.364403
0.364556
0.352528
0.352528
0.345341
0.344211
0.378459
0.359467
0.374094
0.374527
0.368259
0.343338
0.340908
0.382149
0.369306
0.382468
0.36264
0.369793
0.362768
0.370432
0.358016
0.397098
0.37172
0.372059
0.361459
0.349777
0.356147
0.366243
0.379382
0.374552
0.380631
0.357858
0.357184
0.358682
0.373067
0.373614
0.391326
0.363797
0.357857
0.364222
0.365424
0.381828
0.352834
0.370843
0.360628
0.368034
0.372554
0.357833
0.360816
0.361797
0.375144
0.35885
0.364637
0.36675
0.368089
0.386348
0.355962
0.370048
0.353314
0.351295
0.365687
0.345658
0.383279
0.364969
0.367511
0.358162
0.379676
0.374053
0.363598
0.356482
0.365569
0.372515
0.373207
0.374866
0.378095
0.344779
0.353765
0.375961
0.365422
0.364184
0.374761
0.370574
0.364382
0.359887
0.383229
0.373088
0.350277
0.363764
0.357118
0.363073
0.372694
0.379243
0.358609
0.359949
0.353271
0.347565
0.370924
0.366131
0.379454
0.376529
0.35131
0.364192
0.364016
0.366287
0.357778
0.367032
0.380674
0.374973
0.366437
0.357064
0.369299
0.367291
0.374276
0.366694
0.359899
0.344914
0.35559
0.365521
0.369286
0.359067
0.371144
0.360102
0.359419
0.368587
0.369242
0.390025
0.368547
0.363441
0.381241
0.386374
0.384477
0.371544
0.347552
0.375865
0.370987
0.369876
0.376284
0.365143
0.354202
0.356085
0.360842
0.374299
0.380247
0.35703
0.366525
0.364258
0.374271
0.363853
0.354107
0.352623
0.362861
0.374619
0.381196
0.363093
0.372445
0.366139
0.375017
0.369049
0.381876
0.358119
0.374006
0.361045
0.355869
0.360393
0.362193
0.354583
0.366035
0.373452
0.375293
0.370968
0.37731
0.365618
0.368356
0.380414
0.361338
0.338607
0.350495
0.367603
0.387322
0.359167
0.347291
0.34761
0.37484
0.385041
0.368368
0.373751
0.382472
0.365389
0.339837
0.360725
0.376727
0.377202
0.367744
0.363668
0.355337
0.355145
0.36157
0.378387
0.360793
0.352268
0.362029
0.383876
0.362668
0.36894
0.347779
0.360375
0.355885
0.369511
0.371698
0.373993
0.382984
0.386221
0.373856
0.376279
0.357417
0.343545
0.357359
0.349954
0.383003
0.369565
0.368807
0.352366
0.394274
0.380165
0.356209
0.36264
0.373848
0.361879
0.36191
0.355616
0.389079
0.377195
0.366159
0.350728
0.365516
0.382992
0.35982
0.354011
0.377902
0.358799
0.366785
0.374423
0.348854
0.374393
0.380536
0.361653
0.376026
0.360824
0.381978
0.379257
0.36614
0.362303
0.375863
0.352236
0.364641
0.375806
0.369027
0.373501
0.359925
0.354724
0.368309
0.384195
0.383003
0.3791
0.3554
0.373393
0.382861
0.350962
0.347392
0.367229
0.380023
0.370875
0.372874
0.359789
0.368366
0.376221
0.363891
0.36363
0.35772
0.342031
0.347091
0.35921
0.369566
0.359195
0.371898
0.361457
0.384071
0.359216
0.363777
0.386176
0.351642
0.365904
0.362175
0.363805
0.373471
0.37027
0.372578
0.376626
0.369356
0.389028
0.359825
0.340926
0.367074
0.358557
0.350086
0.383816
0.374009
0.375325
0.359922
0.367321
0.365313
0.36689
0.352571
0.385869
0.365623
0.356214
0.360349
0.355423
0.372635
0.378663
0.368851
0.378514
0.368418
0.355969
0.368462
0.369634
0.37078
0.359178
0.358784
0.368489
0.370126
0.375089
0.354361
0.369872
0.376901
0.346434
0.346445
0.355773
0.3653
0.358882
0.356834
0.3829
0.383002
0.371498
0.367285
0.342566
0.36407
0.369802
0.353414
0.369167
0.381762
0.392118
0.348189
0.365398
0.351531
0.367871
0.367668
0.377356
0.360621
0.342692
0.364731
0.344219
0.370786
0.366842
0.372592
0.361948
0.365336
0.363556
0.36548
0.352383
0.360905
0.359126
0.338233
0.357228
0.391462
0.362195
0.350392
0.387056
0.363299
0.363293
0.377253
0.368387
0.34034
0.362939
0.36766
0.347161
0.377426
0.387615
0.38383
0.35872
0.351161
0.33544
0.357017
0.380874
0.377724
0.351875
0.354846
0.357045
0.350157
0.378511
0.373051
0.378692
0.356924
0.369352
0.364489
0.361354
0.371565
0.364856
0.363466
0.37189
0.373493
0.383232
0.361693
0.358273
0.376263
0.373796
0.375272
0.364067
0.370736
0.338525
0.364523
0.363301
0.361532
0.360798
0.365802
0.359664
0.35684
0.354351
0.375761
0.37087
0.36422
0.368047
0.355856
0.369757
0.382046
0.363195
0.366534
0.369846
0.375206
0.362117
0.357835
0.34452
0.368907
0.368534
0.372717
0.359108
0.38826
0.375428
0.346608
0.366298
0.376363
0.389513
0.350898
0.358833
0.364141
0.369191
0.369544
0.355648
0.355338
0.373398
0.361296
0.354698
0.359459
0.364176
0.351696
0.368299
0.374888
0.349453
0.370373
0.376638
0.361776
0.380249
0.370823
0.355405
0.365016
0.350371
0.377527
0.369794
0.372702
0.36458
0.357579
0.341377
0.371358
0.334028
0.362706
0.379872
0.364752
0.376754
0.360543
0.361255
0.375847
0.382777
0.376144
0.369689
0.36794
0.375051
0.358747
0.351591
0.369732
0.375077
0.348213
0.353134
0.373274
0.362952
0.378803
0.372143
0.364246
0.357178
0.369303
0.368478
0.355642
0.375627
0.382688
0.363646
0.358466
0.369701
0.360059
0.375651
0.362643
0.363783
0.358832
0.377663
0.364108
0.371171
0.381459
0.352249
0.37661
0.373601
0.367442
0.370513
0.374782
0.35338
0.364931
0.382535
0.373389
0.350586
0.365156
0.354503
0.367638
0.356828
0.364575
0.380393
0.359331
0.376566
0.388024
0.374766
0.366083
0.363044
0.365812
0.364705
0.360479
0.355934
0.36665
0.367207
0.375524
0.353239
0.361254
0.345708
0.341883
0.366495
0.368553
0.370156
0.360145
0.363982
0.3699
0.372812
0.353952
0.358874
0.368342
0.373315
0.386156
0.371511
0.363669
0.365702
0.381755
0.369967
0.352526
0.368611
0.369339
0.375077
0.343566
0.364228
0.381633
0.375397
0.369405
0.370514
0.374007
0.350005
0.365128
0.366874
0.373796
0.345755
0.372119
0.371351
0.37832
0.373956
0.37356
0.361304
0.358974
0.361236
0.366361
0.358023
0.371179
0.374418
0.364416
0.359877
0.357566
0.405174
0.398453
0.362385
0.366924
0.369943
0.366098
0.365319
0.377925
0.367519
0.346506
0.360031
0.375466
0.365665
0.367239
0.368163
0.384201
0.372918
0.364834
0.369312
0.359826
0.348715
0.369069
0.376011
0.3586
0.375467
0.356666
0.350995
0.365116
0.367021
0.363206
0.376266
0.377331
0.357563
0.368846
0.354503
0.371631
0.370265
0.364427
0.365809
0.371549
0.368368
0.354962
0.363644
0.365295
0.373077
0.363349
0.36452
0.350363
0.356423
0.38179
0.374256
0.362924
0.362793
0.361316
0.379939
0.363791
0.344115
0.366481
0.383902
0.377805
0.379825
0.362117
0.379562
0.393201
0.345517
0.354975
0.350158
0.368142
0.369878
0.378678
0.358364
0.37241
0.361951
0.369508
0.371006
0.371957
0.371772
0.365679
0.351048
0.361517
0.373381
0.364987
0.369384
0.364246
0.354837
0.365913
0.36991
0.366481
0.354936
0.369648
0.360729
0.377216
0.367827
0.361593
0.342861
0.365533
0.361812
0.369568
0.370613
0.366968
0.350395
0.368961
0.356712
0.369741
0.38036
0.370452
0.377951
0.344095
0.376074
0.352206
0.360948
0.371641
0.35245
0.35972
0.376961
0.388897
0.392448
0.364208
0.355281
0.357037
0.349979
0.36036
0.381312
0.371704
0.354252
0.37859
0.377726
0.36491
0.36644
0.3579
0.348744
0.374458
0.374894
0.366656
0.358633
0.35854
0.364976
0.386165
0.387938
0.366963
0.352055
0.364947
0.371289
0.355551
0.371624
0.356876
0.353747
0.380519
0.373715
0.369245
0.368026
0.3541
0.374864
0.389953
0.366635
0.346514
0.367109
0.374008
0.374711
0.373381
0.367415
0.362788
0.349925
0.371224
0.359998
0.37035
0.387492
0.361513
0.363233
0.37139
0.371286
0.377709
0.372833
0.357989
0.357618
0.391171
0.381074
0.373
0.366219
0.366603
0.352059
0.359848
0.368529
0.362521
0.352719
0.3583
0.376702
0.361506
0.361305
0.364432
0.366867
0.363215
0.367783
0.37036
0.376597
0.367803
0.38529
0.365772
0.376917
0.375589
0.379581
0.373113
0.350689
0.361115
0.367724
0.375309
0.358099
0.366491
0.361173
0.370292
0.356073
0.378689
0.368436
0.361751
0.364902
0.351325
0.359387
0.36994
0.3747
0.379559
0.355375
0.374364
0.352022
0.359672
0.360629
0.386991
0.367653
0.364427
0.367577
0.344446
0.369111
0.363146
0.368749
0.363312
0.364181
0.363819
0.367524
0.364961
0.368351
0.369563
0.352062
0.364934
0.374979
0.376458
0.361311
0.363943
0.373516
0.381375
0.376511
0.38049
0.363549
0.357038
0.363469
0.365663
0.362022
0.355737
0.358647
0.376433
0.364521
0.367872
0.365699
0.35929
0.354594
0.38212
0.372749
0.387188
0.361212
0.372046
0.372531
0.352729
0.33961
0.343218
0.38503
0.368281
0.367538
0.376497
0.350346
0.368038
0.353969
0.379656
0.359196
0.356163
0.343821
0.362076
0.371808
0.377059
0.379163
0.353852
0.371191
0.36062
0.367618
0.371049
0.377701
0.363532
0.363183
0.374627
0.361494
0.348784
0.361771
0.380799
0.35676
0.38432
0.36399
0.345287
0.373931
0.378003
0.376933
0.367327
0.385698
0.365225
0.355087
0.356579
0.370375
0.369952
0.367366
0.3679
0.348412
0.355775
0.358878
0.384962
0.36868
0.335607
0.35775
0.371852
0.380073
0.388235
0.36728
0.373886
0.360627
0.346569
0.335229
0.372469
0.383537
0.362847
0.364088
0.365206
0.361071
0.367399
0.388294
0.37888
0.365742
0.355965
0.359435
0.364519
0.336136
0.367395
0.368232
0.364906
0.361851
0.359364
0.362352
0.359082
0.361208
0.380804
0.372795
0.356908
0.369299
0.35172
0.376156
0.359117
0.358856
0.35826
0.360957
0.35799
0.367209
0.375543
0.381491
0.366266
0.355235
0.379064
0.353948
0.35951
0.389887
0.354569
0.371801
0.365358
0.369719
0.386479
0.364888
0.364944
0.379469
0.381977
0.355282
0.35927
0.351165
0.363098
0.356918
0.351601
0.378092
0.393865
0.368841
0.369924
0.358977
0.364041
0.37277
0.355587
0.376649
0.368522
0.35687
0.383245
0.364045
0.36343
0.364164
0.356555
0.374842
0.357848
0.374724
0.366385
0.37146
0.36391
0.366005
0.363032
0.3419
0.369826
0.359165
0.374798
0.361903
0.371973
0.367025
0.386083
0.364426
0.378136
0.354808
0.349252
0.365853
0.370227
0.371948
0.364246
0.36482
0.343182
0.372697
0.385923
0.378975
0.367587
0.361201
0.353492
0.347551
0.367829
0.369046
0.368609
0.370015
0.375124
0.352132
0.374281
0.379124
0.361844
0.372311
0.376661
0.355683
0.360951
0.345994
0.36775
0.376465
0.372659
0.358809
0.339319
0.371644
0.377973
0.363038
0.367327
0.349588
0.391591
0.377138
0.360204
0.36423
0.375666
0.365515
0.355165
0.374125
0.363556
0.365783
0.353486
0.3597
0.361909
0.364184
0.388092
0.370389
0.361176
0.370975
0.354429
0.355794
0.373446
0.363146
0.377005
0.378249
0.365847
0.36926
0.387723
0.378175
0.366001
0.356102
0.356186
0.372335
0.362311
0.368027
0.365207
0.383988
0.37714
0.365724
0.385905
0.352853
0.349144
0.382706
0.388845
0.350836
0.377644
0.366613
0.365036
0.360075
0.382618
0.371836
0.354796
0.349256
0.368071
0.376546
0.370505
0.36272
0.383985
0.375253
0.358428
0.377132
0.375787
0.347256
0.368628
0.371648
0.364262
0.364052
0.371043
0.367104
0.35838
0.382492
0.400993
0.360598
0.357028
0.363434
0.371561
0.369982
0.371817
0.360022
0.362484
0.383067
0.368715
0.367796
0.343033
0.365523
0.375674
0.388351
0.352211
0.360364
0.36133
0.376576
0.359539
0.362233
0.366242
0.376326
0.362593
0.357373
0.37153
0.367171
0.377261
0.379221
0.38817
0.348699
0.343397
0.35372
0.375192
0.368821
0.357763
0.349785
0.364758
0.376023
0.390315
0.374489
0.369311
0.36719
0.347486
0.370441
0.369023
0.367572
0.354026
0.368208
0.370942
0.368566
0.363974
0.351484
0.365158
0.359414
0.368135
0.378439
0.373742
0.383495
0.369084
0.378317
0.351873
0.36544
0.378263
0.359442
0.348422
0.370714
0.369816
0.36722
0.360114
0.370111
0.379734
0.370705
0.369145
0.359839
0.36828
0.356877
0.37734
0.357309
0.3561
0.358252
0.358347
0.380392
0.373417
0.367859
0.369443
0.3625
0.350854
0.36093
0.373385
0.381802
0.373943
0.37112
0.357708
0.352762