# vtk DataFile Version 2.0
2D Surface
ASCII
DATASET UNSTRUCTURED_GRID
POINTS 2187 float
7.0024e-05 -1.449e-05 0. 
7.011e-05 -1.4496e-05 0. 
7.02e-05 -1.44919e-05 0. 
7.029e-05 -1.4493e-05 0. 
7.038e-05 -1.45006e-05 0. 
7.047e-05 -1.44973e-05 0. 
7.0558e-05 -1.449e-05 0. 
7.05627e-05 -1.449e-05 0. 
7.065e-05 -1.44955e-05 0. 
7.074e-05 -1.4499e-05 0. 
7.083e-05 -1.44952e-05 0. 
7.092e-05 -1.44972e-05 0. 
7.101e-05 -1.45036e-05 0. 
7.11e-05 -1.45064e-05 0. 
7.119e-05 -1.4508e-05 0. 
7.128e-05 -1.45109e-05 0. 
7.137e-05 -1.45067e-05 0. 
7.146e-05 -1.45076e-05 0. 
7.155e-05 -1.4505e-05 0. 
7.164e-05 -1.45052e-05 0. 
7.173e-05 -1.45039e-05 0. 
7.182e-05 -1.45068e-05 0. 
7.191e-05 -1.45097e-05 0. 
7.2e-05 -1.45141e-05 0. 
7.209e-05 -1.45125e-05 0. 
7.218e-05 -1.45113e-05 0. 
7.227e-05 -1.45134e-05 0. 
7.236e-05 -1.45179e-05 0. 
7.245e-05 -1.45169e-05 0. 
7.254e-05 -1.45233e-05 0. 
7.263e-05 -1.45162e-05 0. 
7.272e-05 -1.4524e-05 0. 
7.281e-05 -1.45235e-05 0. 
7.29e-05 -1.45316e-05 0. 
7.299e-05 -1.45335e-05 0. 
7.308e-05 -1.45309e-05 0. 
7.317e-05 -1.45291e-05 0. 
7.326e-05 -1.45285e-05 0. 
7.335e-05 -1.45281e-05 0. 
7.344e-05 -1.45324e-05 0. 
7.353e-05 -1.4539e-05 0. 
7.362e-05 -1.45459e-05 0. 
7.371e-05 -1.45485e-05 0. 
7.38e-05 -1.45448e-05 0. 
7.389e-05 -1.45474e-05 0. 
7.398e-05 -1.45423e-05 0. 
7.407e-05 -1.45441e-05 0. 
7.416e-05 -1.45446e-05 0. 
7.425e-05 -1.45455e-05 0. 
7.434e-05 -1.45342e-05 0. 
7.443e-05 -1.45434e-05 0. 
7.452e-05 -1.45442e-05 0. 
7.461e-05 -1.45384e-05 0. 
7.47e-05 -1.45431e-05 0. 
7.479e-05 -1.45486e-05 0. 
7.488e-05 -1.45453e-05 0. 
7.497e-05 -1.45369e-05 0. 
7.506e-05 -1.45391e-05 0. 
7.515e-05 -1.45453e-05 0. 
7.524e-05 -1.45465e-05 0. 
7.533e-05 -1.45446e-05 0. 
7.542e-05 -1.45429e-05 0. 
7.551e-05 -1.4545e-05 0. 
7.56e-05 -1.45497e-05 0. 
7.569e-05 -1.45467e-05 0. 
7.578e-05 -1.45424e-05 0. 
7.587e-05 -1.45429e-05 0. 
7.596e-05 -1.45321e-05 0. 
7.605e-05 -1.45295e-05 0. 
7.614e-05 -1.45282e-05 0. 
7.623e-05 -1.45296e-05 0. 
7.632e-05 -1.4535e-05 0. 
7.641e-05 -1.45376e-05 0. 
7.65e-05 -1.45383e-05 0. 
7.659e-05 -1.4534e-05 0. 
7.668e-05 -1.45312e-05 0. 
7.677e-05 -1.4535e-05 0. 
7.686e-05 -1.45337e-05 0. 
7.695e-05 -1.45326e-05 0. 
7.704e-05 -1.45261e-05 0. 
7.713e-05 -1.45233e-05 0. 
7.722e-05 -1.4534e-05 0. 
7.731e-05 -1.45331e-05 0. 
7.74e-05 -1.4529e-05 0. 
7.749e-05 -1.45317e-05 0. 
7.758e-05 -1.45329e-05 0. 
7.767e-05 -1.45316e-05 0. 
7.776e-05 -1.45244e-05 0. 
7.785e-05 -1.45237e-05 0. 
7.794e-05 -1.45101e-05 0. 
7.803e-05 -1.45151e-05 0. 
7.812e-05 -1.45147e-05 0. 
7.821e-05 -1.45113e-05 0. 
7.83e-05 -1.45042e-05 0. 
7.839e-05 -1.45019e-05 0. 
7.848e-05 -1.45025e-05 0. 
7.857e-05 -1.45039e-05 0. 
7.866e-05 -1.45099e-05 0. 
7.875e-05 -1.45052e-05 0. 
7.884e-05 -1.45022e-05 0. 
7.893e-05 -1.44971e-05 0. 
7.902e-05 -1.44954e-05 0. 
7.911e-05 -1.4501e-05 0. 
7.92e-05 -1.45011e-05 0. 
7.929e-05 -1.45031e-05 0. 
7.938e-05 -1.45033e-05 0. 
7.947e-05 -1.44984e-05 0. 
7.956e-05 -1.4496e-05 0. 
7.965e-05 -1.44975e-05 0. 
7.974e-05 -1.44973e-05 0. 
7.983e-05 -1.44906e-05 0. 
7.98624e-05 -1.449e-05 0. 
6.68846e-05 -1.44e-05 0. 
6.696e-05 -1.44039e-05 0. 
6.705e-05 -1.44079e-05 0. 
6.714e-05 -1.4408e-05 0. 
6.723e-05 -1.44136e-05 0. 
6.732e-05 -1.44194e-05 0. 
6.741e-05 -1.44305e-05 0. 
6.75e-05 -1.44395e-05 0. 
6.759e-05 -1.4441e-05 0. 
6.768e-05 -1.44444e-05 0. 
6.777e-05 -1.44478e-05 0. 
6.786e-05 -1.44424e-05 0. 
6.795e-05 -1.44471e-05 0. 
6.804e-05 -1.44456e-05 0. 
6.813e-05 -1.44439e-05 0. 
6.822e-05 -1.44532e-05 0. 
6.831e-05 -1.44535e-05 0. 
6.84e-05 -1.44578e-05 0. 
6.849e-05 -1.44589e-05 0. 
6.858e-05 -1.44705e-05 0. 
6.867e-05 -1.44743e-05 0. 
6.876e-05 -1.4469e-05 0. 
6.885e-05 -1.44715e-05 0. 
6.894e-05 -1.44721e-05 0. 
6.903e-05 -1.44675e-05 0. 
6.912e-05 -1.44747e-05 0. 
6.921e-05 -1.44773e-05 0. 
6.93e-05 -1.44784e-05 0. 
6.939e-05 -1.44796e-05 0. 
6.948e-05 -1.44815e-05 0. 
6.957e-05 -1.44828e-05 0. 
6.966e-05 -1.44829e-05 0. 
6.975e-05 -1.44791e-05 0. 
6.984e-05 -1.44801e-05 0. 
6.993e-05 -1.44862e-05 0. 
7.002e-05 -1.44897e-05 0. 
7.056e-05 -1.44898e-05 0. 
7.992e-05 -1.44889e-05 0. 
8.001e-05 -1.44851e-05 0. 
8.01e-05 -1.44832e-05 0. 
8.019e-05 -1.4483e-05 0. 
8.028e-05 -1.4486e-05 0. 
8.037e-05 -1.44808e-05 0. 
8.046e-05 -1.44802e-05 0. 
8.055e-05 -1.44833e-05 0. 
8.064e-05 -1.44842e-05 0. 
8.073e-05 -1.44791e-05 0. 
8.082e-05 -1.447e-05 0. 
8.091e-05 -1.44654e-05 0. 
8.1e-05 -1.44593e-05 0. 
8.109e-05 -1.44505e-05 0. 
8.118e-05 -1.44482e-05 0. 
8.127e-05 -1.4449e-05 0. 
8.136e-05 -1.44441e-05 0. 
8.145e-05 -1.44383e-05 0. 
8.154e-05 -1.44276e-05 0. 
8.163e-05 -1.4427e-05 0. 
8.172e-05 -1.44299e-05 0. 
8.181e-05 -1.44219e-05 0. 
8.19e-05 -1.44268e-05 0. 
8.199e-05 -1.44328e-05 0. 
8.208e-05 -1.44323e-05 0. 
8.217e-05 -1.44289e-05 0. 
8.226e-05 -1.44246e-05 0. 
8.235e-05 -1.44237e-05 0. 
8.244e-05 -1.44219e-05 0. 
8.253e-05 -1.44172e-05 0. 
8.262e-05 -1.44137e-05 0. 
8.271e-05 -1.44133e-05 0. 
8.28e-05 -1.44106e-05 0. 
8.289e-05 -1.44019e-05 0. 
8.29183e-05 -1.44e-05 0. 
6.48993e-05 -1.431e-05 0. 
6.498e-05 -1.43154e-05 0. 
6.507e-05 -1.43199e-05 0. 
6.516e-05 -1.43258e-05 0. 
6.525e-05 -1.43251e-05 0. 
6.534e-05 -1.43313e-05 0. 
6.543e-05 -1.43428e-05 0. 
6.552e-05 -1.43522e-05 0. 
6.561e-05 -1.43575e-05 0. 
6.57e-05 -1.43592e-05 0. 
6.579e-05 -1.43513e-05 0. 
6.588e-05 -1.4356e-05 0. 
6.597e-05 -1.43646e-05 0. 
6.606e-05 -1.43681e-05 0. 
6.615e-05 -1.43673e-05 0. 
6.624e-05 -1.43634e-05 0. 
6.633e-05 -1.43641e-05 0. 
6.642e-05 -1.4372e-05 0. 
6.651e-05 -1.43826e-05 0. 
6.66e-05 -1.43857e-05 0. 
6.669e-05 -1.43859e-05 0. 
6.678e-05 -1.43947e-05 0. 
6.687e-05 -1.43992e-05 0. 
8.298e-05 -1.43959e-05 0. 
8.307e-05 -1.43964e-05 0. 
8.316e-05 -1.4397e-05 0. 
8.325e-05 -1.43956e-05 0. 
8.334e-05 -1.43931e-05 0. 
8.343e-05 -1.43828e-05 0. 
8.352e-05 -1.43779e-05 0. 
8.361e-05 -1.43792e-05 0. 
8.37e-05 -1.43776e-05 0. 
8.379e-05 -1.43734e-05 0. 
8.388e-05 -1.43698e-05 0. 
8.397e-05 -1.43665e-05 0. 
8.406e-05 -1.43585e-05 0. 
8.415e-05 -1.4351e-05 0. 
8.424e-05 -1.43525e-05 0. 
8.433e-05 -1.43481e-05 0. 
8.442e-05 -1.43426e-05 0. 
8.451e-05 -1.43307e-05 0. 
8.46e-05 -1.43322e-05 0. 
8.469e-05 -1.43329e-05 0. 
8.478e-05 -1.43279e-05 0. 
8.487e-05 -1.43213e-05 0. 
8.496e-05 -1.43191e-05 0. 
8.505e-05 -1.43169e-05 0. 
8.514e-05 -1.43143e-05 0. 
8.51967e-05 -1.431e-05 0. 
6.35e-05 -1.422e-05 0. 
6.354e-05 -1.42254e-05 0. 
6.363e-05 -1.42331e-05 0. 
6.372e-05 -1.42431e-05 0. 
6.381e-05 -1.42472e-05 0. 
6.39e-05 -1.42499e-05 0. 
6.399e-05 -1.42591e-05 0. 
6.408e-05 -1.42707e-05 0. 
6.417e-05 -1.42739e-05 0. 
6.426e-05 -1.42785e-05 0. 
6.435e-05 -1.42821e-05 0. 
6.444e-05 -1.42861e-05 0. 
6.453e-05 -1.42861e-05 0. 
6.462e-05 -1.4283e-05 0. 
6.471e-05 -1.42988e-05 0. 
6.48e-05 -1.43023e-05 0. 
6.489e-05 -1.43094e-05 0. 
8.523e-05 -1.43075e-05 0. 
8.532e-05 -1.43016e-05 0. 
8.541e-05 -1.4289e-05 0. 
8.55e-05 -1.42844e-05 0. 
8.559e-05 -1.42803e-05 0. 
8.568e-05 -1.42733e-05 0. 
8.577e-05 -1.42553e-05 0. 
8.586e-05 -1.42609e-05 0. 
8.595e-05 -1.42609e-05 0. 
8.604e-05 -1.4261e-05 0. 
8.613e-05 -1.42544e-05 0. 
8.622e-05 -1.42475e-05 0. 
8.631e-05 -1.4244e-05 0. 
8.64e-05 -1.424e-05 0. 
8.649e-05 -1.42296e-05 0. 
8.658e-05 -1.42239e-05 0. 
8.667e-05 -1.42236e-05 0. 
8.67119e-05 -1.422e-05 0. 
6.24204e-05 -1.413e-05 0. 
6.246e-05 -1.4133e-05 0. 
6.255e-05 -1.41373e-05 0. 
6.264e-05 -1.41472e-05 0. 
6.273e-05 -1.41599e-05 0. 
6.282e-05 -1.41714e-05 0. 
6.291e-05 -1.41808e-05 0. 
6.3e-05 -1.41846e-05 0. 
6.309e-05 -1.419e-05 0. 
6.318e-05 -1.41954e-05 0. 
6.327e-05 -1.42042e-05 0. 
6.336e-05 -1.42064e-05 0. 
6.345e-05 -1.42132e-05 0. 
8.676e-05 -1.42159e-05 0. 
8.685e-05 -1.42033e-05 0. 
8.694e-05 -1.4195e-05 0. 
8.703e-05 -1.41851e-05 0. 
8.712e-05 -1.417e-05 0. 
8.721e-05 -1.41654e-05 0. 
8.73e-05 -1.41557e-05 0. 
8.739e-05 -1.41534e-05 0. 
8.748e-05 -1.41485e-05 0. 
8.757e-05 -1.41373e-05 0. 
8.76291e-05 -1.413e-05 0. 
6.14012e-05 -1.404e-05 0. 
6.147e-05 -1.40475e-05 0. 
6.156e-05 -1.40537e-05 0. 
6.165e-05 -1.4066e-05 0. 
6.174e-05 -1.40766e-05 0. 
6.183e-05 -1.40859e-05 0. 
6.192e-05 -1.40951e-05 0. 
6.201e-05 -1.41033e-05 0. 
6.21e-05 -1.411e-05 0. 
6.219e-05 -1.41126e-05 0. 
6.228e-05 -1.41163e-05 0. 
6.237e-05 -1.41262e-05 0. 
8.766e-05 -1.41262e-05 0. 
8.775e-05 -1.41178e-05 0. 
8.784e-05 -1.41099e-05 0. 
8.793e-05 -1.40966e-05 0. 
8.802e-05 -1.40917e-05 0. 
8.811e-05 -1.40861e-05 0. 
8.82e-05 -1.40791e-05 0. 
8.829e-05 -1.40692e-05 0. 
8.838e-05 -1.40671e-05 0. 
8.847e-05 -1.40637e-05 0. 
8.856e-05 -1.40525e-05 0. 
8.865e-05 -1.40545e-05 0. 
8.87122e-05 -1.404e-05 0. 
6.09667e-05 -1.395e-05 0. 
6.102e-05 -1.40012e-05 0. 
6.111e-05 -1.39935e-05 0. 
6.12e-05 -1.40148e-05 0. 
6.129e-05 -1.40285e-05 0. 
6.138e-05 -1.40377e-05 0. 
8.874e-05 -1.40335e-05 0. 
8.883e-05 -1.40352e-05 0. 
8.892e-05 -1.40039e-05 0. 
8.901e-05 -1.40272e-05 0. 
8.90854e-05 -1.395e-05 0. 
6.08792e-05 -1.386e-05 0. 
6.093e-05 -1.39131e-05 0. 
8.91e-05 -1.39242e-05 0. 
8.91363e-05 -1.386e-05 0. 
6.08529e-05 -1.377e-05 0. 
8.91482e-05 -1.377e-05 0. 
6.08446e-05 -1.368e-05 0. 
8.91503e-05 -1.368e-05 0. 
6.08425e-05 -1.359e-05 0. 
8.91489e-05 -1.359e-05 0. 
6.08404e-05 -1.35e-05 0. 
8.91517e-05 -1.35e-05 0. 
6.08415e-05 -1.341e-05 0. 
8.91515e-05 -1.341e-05 0. 
6.08404e-05 -1.332e-05 0. 
8.91547e-05 -1.332e-05 0. 
6.08342e-05 -1.323e-05 0. 
6.084e-05 -1.33148e-05 0. 
8.91533e-05 -1.323e-05 0. 
6.08321e-05 -1.314e-05 0. 
8.91565e-05 -1.314e-05 0. 
6.08301e-05 -1.305e-05 0. 
8.9159e-05 -1.305e-05 0. 
6.08357e-05 -1.296e-05 0. 
8.91662e-05 -1.296e-05 0. 
6.08368e-05 -1.287e-05 0. 
8.91634e-05 -1.287e-05 0. 
6.084e-05 -1.28372e-05 0. 
6.08456e-05 -1.278e-05 0. 
8.91574e-05 -1.278e-05 0. 
6.08321e-05 -1.269e-05 0. 
6.084e-05 -1.27427e-05 0. 
8.91625e-05 -1.269e-05 0. 
6.084e-05 -1.26624e-05 0. 
6.08578e-05 -1.26e-05 0. 
8.91625e-05 -1.26e-05 0. 
6.08323e-05 -1.251e-05 0. 
6.084e-05 -1.25372e-05 0. 
8.91592e-05 -1.251e-05 0. 
6.08155e-05 -1.242e-05 0. 
8.9154e-05 -1.242e-05 0. 
6.0829e-05 -1.233e-05 0. 
[...]
POINT_DATA 2187
SCALARS Coverage0 float 1
LOOKUP_TABLE default
0.320585
0.302781
0.321314
0.320122
0.275258
0.266971
0.286672
0.286672
0.290544
0.28796
0.283289
0.313665
0.308657
0.328798
0.342955
0.302661
0.323435
0.326337
0.300224
0.303836
0.28346
0.284822
0.301116
0.325595
0.306097
0.318194
0.33892
0.315044
0.302857
0.300321
0.299205
0.292889
0.296524
0.269358
0.298005
0.314731
0.295883
0.302203
0.291192
0.285441
0.304185
0.303162
0.306745
0.30384
0.292228
0.29209
0.317187
0.299417
0.321267
0.326952
0.328062
0.310151
0.260272
0.276668
0.321746
0.3221
0.314329
0.31021
0.295196
0.294407
0.308214
0.334531
0.328795
0.285921
0.308971
0.285305
0.28293
0.319644
0.33348
0.337294
0.337506
0.340594
0.340387
0.305586
0.30236
0.310735
0.342112
0.316839
0.319084
0.333171
0.313513
0.297256
0.30985
0.332586
0.330794
0.317999
0.275254
0.300247
0.315955
0.310372
0.312827
0.31326
0.283234
0.308425
0.301526
0.308692
0.328072
0.311289
0.309322
0.309668
0.333735
0.306309
0.299895
0.297858
0.294878
0.292893
0.307639
0.34907
0.297321
0.267096
0.290327
0.290327
0.301727
0.310005
0.30001
0.330245
0.320762
0.319533
0.335772
0.290653
0.287047
0.318128
0.301299
0.253381
0.267097
0.310409
0.314859
0.321695
0.308123
0.289306
0.283595
0.30115
0.303706
0.300611
0.297932
0.285732
0.279191
0.277817
0.300028
0.309044
0.321546
0.322345
0.317957
0.30227
0.300402
0.344488
0.323345
0.320585
0.286672
0.317905
0.316025
0.301913
0.284563
0.298781
0.314148
0.304146
0.280362
0.31429
0.317278
0.303417
0.299538
0.319408
0.316572
0.297015
0.291429
0.292549
0.283989
0.280941
0.284876
0.264296
0.2856
0.309126
0.320055
0.309778
0.284791
0.293681
0.311162
0.287286
0.277099
0.307796
0.291497
0.28096
0.300074
0.300074
0.249053
0.261372
0.255484
0.282368
0.255401
0.286883
0.321144
0.302269
0.291323
0.273616
0.295724
0.273049
0.247923
0.277603
0.284783
0.279208
0.308569
0.317035
0.306494
0.284935
0.277481
0.282769
0.301727
0.313153
0.304471
0.277152
0.272009
0.28908
0.292138
0.309011
0.29101
0.276442
0.30208
0.30063
0.299652
0.296565
0.280697
0.293479
0.281023
0.280579
0.274297
0.291658
0.266853
0.266652
0.27658
0.283418
0.296524
0.302199
0.294437
0.279652
0.279652
0.291473
0.27948
0.286957
0.288455
0.289625
0.291199
0.282888
0.286485
0.287104
0.277905
0.247865
0.28257
0.313923
0.28485
0.249053
0.294437
0.262989
0.27278
0.270779
0.28714
0.286075
0.289428
0.274333
0.260793
0.299312
0.326998
0.281152
0.259177
0.26626
0.261066
0.239443
0.259327
0.259327
0.242828
0.242828
0.255727
0.272094
0.27341
0.262641
0.262725
0.245502
0.251143
0.262152
0.278884
0.258707
0.251059
0.258299
0.278735
0.302163
0.290655
0.250915
0.255018
0.263763
0.286273
0.300848
0.291813
0.263413
0.262644
0.261918
0.269785
0.238604
0.273528
0.251173
0.237692
0.253127
0.269915
0.273291
0.277541
0.270773
0.263413
0.243324
0.248623
0.258374
0.26599
0.256433
0.263475
0.254696
0.252475
0.238838
0.228001
0.253871
0.248652
0.416963
0.318777
0.287893
0.274476
0.2502
0.262644
0.248652
0.248699
0.257958
0.303304
0.475074
0.508355
0.416963
0.475074
0.654262
0.767154
0.818943
0.895058
0.928302
0.772937
0.914384
0.973934
0.968245
0.935951
0.982802
0.953904
0.904064
0.835775
0.953904
0.977695
0.729248
0.880886
1
0.900286
1
0.949872
0
0.99957
0
0.969982
0.967
0
0.969982
0.987699
0
0.98578
0.939814
0.740381
0.740381
1
1
0.482972
1
0.884447
1
0.988658
0.999689
0.999689
0.885424
0.846265
0.999689
1
0.999809
0.998581
0.951457
0.805354
0.87193
1
0
0.798433
0
0.793629
0.793629
0
0.229477
0.229477
0.630146
0.846985
0.858283
0.846985
0.848994
0.759461
0
0.748389
0
0.723967
1
1
1
1
1
1
1
0
1
0.856821
0
0.852452
0.999397
0.852452
0.813263
0.881294
1
0.75449
1
0.781888
0
1
0.781888
0
1
0
0.973154
0
0.81313
0.81313
0
0.764535
0
0.92006
0.845089
0.716577
0.716577
1
0
0.847226
0.847226
0
0.847226
0.841998
0.841998
0.793833
0
1
0
0
0
0
0
0.904465
1
0.725767
0
0.760534
0.760534
0
1
1
0
0.803476
0.803476
1
0.79586
0
0
0
0
1
1
1
0
0
0
1
1
0
0.886835
0
0.838979
0.839314
0.838979
0.793061
0.733563
1
1
0.868284
0.733563
0
0
0
1
0.834167
1
0.804125
0.994979
1
1
0.822585
0.930206
0.930206
0.806941
0.806941
0.930206
0
1
1
0
1
1
1
0
1
1
0
1
0.990595
0.990595
0
0
0.990595
0.779175
0.779175
0
0
0
0
0
0.885814
1
0
0
0.796534
0
0
0
0.787794
1
1
1
1
1
0
0
0
0.869877
0.869877
0
0
0.869877
0
1
0
0
1
0.714449
1
1
1
0
0.714449
1
1
1
0
0
0.744121
0.984014
0.984014
1
0.900406
0.744121
0.984014
0
0
1
1
1
0
0
0
0.753189
0
0
1
0
0
0
0.895319
0
0.82025
1
0.878693
0
0.832443
0.832443
0
0
1
1
1
0.836004
0.836004
1
0
0
0
1
0.836004
0
1
1
0.859005
0.859005
0
1
1
0.859005
0.688629
1
1
1
0.986028
0.986028
1
1
1
0
0
0.986028
0
0
0
0
0
0
1
0.981707
0.981707
1
1
0.983212
0.983212
0.981707
1
1
1
0.924589
0.924589
0.983212
0
0
0
0
0
1
1
0
1
1
0
0
1
0
0
0
0.784866
1
0.85002
0.85002
0
0
1
0
0
1
0
0
0
0
0
0
0.981538
0
0
0.788208
0.787354
0.639175
0.639175
0
1
1
1
0.639175
0.89689
0.89689
0
0
0.89689
0.899411
0
0
0.901478
0.901478
0
0
0.89127
1
0.612208
1
0
0
0.829922
0.743319
0.743319
0
0
0.829922
0.743319
1
1
0
1
1
1
1
0
0.842352
1
0.814281
1
0.886428
0.886428
1
0.929839
0.929839
1
0
0
0
0.929839
0
1
0
0
0
1
0
0
1
1
0.873702
0.873702
0.956289
0.956289
1
0.928669
0.873702
0.956289
0.714402
1
1
0
0.928669
0.834899
1
1
0.821053
1
1
0.821053
0.777808
0
0
1
0.777808
1
0
0
1
0.958009
1
1
0.0480302
0.796022
0
1
1
0.796022
0.894266
1
1
0
0
1
1
1
0.989832
0.989832
0
1
0
0.989832
0.86069
0
0.960413
0.990692
0.990692
0.86069
0.930922
0.678785
0.678785
0.960413
0.990692
1
0.664296
1
0.91783
0
0
0.664296
0.727759
0.786557
0
1
0.963682
0.963682
0.636135
0.771177
0.771177
0.697014
0.963682
0.600461
0
0.600461
0.643855
1
0.970928
0.970928
0.82315
0.690912
0.690912
0.997645
0.970928
1
0.690912
0.571625
0.678712
0.38326
0.355511
0.350951
0.367473
0.37089
0.368711
0.36229
0.381769
0.380502
0.356425
0.348739
0.365917
0.366587
0.3515
0.361246
0.365493
0.363589
0.369473
0.368953
0.352366
0.379134
0.373627
0.356558
0.345436
0.361704
0.387116
0.350891
0.360439
0.388539
0.376947
0.367549
0.372116
0.362951
0.370657
0.36175
0.374959
0.363248
0.359758
0.363534
0.363678
0.351867
0.357476
0.364709
0.374428
0.370961
0.369673
0.377028
0.375857
0.366834
0.355256
0.363712
0.367446
0.372929
0.348274
0.354833
0.379372
0.397237
0.375863
0.364639
0.3611
0.38454
0.370889
0.343829
0.369116
0.356679
0.349785
0.371885
0.37649
0.367148
0.366253
0.360748
0.339184
0.381418
0.369324
0.362466
0.365363
0.352152
0.363472
0.372069
0.367229
0.36292
0.364639
0.405248
0.381329
0.359182
0.375505
0.367879
0.328772
0.354643
0.367722
0.378665
0.374767
0.372806
0.36552
0.366045
0.388904
0.367219
0.354277
0.356001
0.36771
0.374276
0.371042
0.363052
0.35743
0.367816
0.349548
0.358565
0.376158
0.370092
0.371446
0.357546
0.353034
0.367972
0.397909
0.372454
0.358457
0.371203
0.387173
0.370348
0.367629
0.365628
0.359121
0.375556
0.395358
0.362119
0.360951
0.372233
0.367013
0.36636
0.365421
0.348827
0.353038
0.363537
0.367369
0.370784
0.366265
0.361464
0.385633
0.372545
0.347835
0.369667
0.381439
0.354704
0.36986
0.3754
0.363735
0.365013
0.379904
0.354838
0.361368
0.35593
0.366753
0.399655
0.385203
0.369982
0.355981
0.380367
0.374172
0.354348
0.354261
0.351924
0.352364
0.377342
0.360385
0.360493
0.38192
0.360415
0.341615
0.354621
0.367545
0.351487
0.371956
0.385601
0.351228
0.36374
0.379908
0.37653
0.360051
0.371649
0.363282
0.37646
0.347799
0.381706
0.356701
0.358585
0.361142
0.381649
0.368134
0.381622
0.370661
0.350337
0.370183
0.353757
0.372054
0.379712
0.357251
0.369106
0.381159
0.366888
0.35599
0.359677
0.3736
0.362863
0.362159
0.372006
0.399426
0.365393
0.355817
0.357036
0.360621
0.368577
0.359014
0.365657
0.370816
0.365269
0.356682
0.35713
0.365532
0.385463
0.361228
0.362069
0.391936
0.36296
0.364208
0.382302
0.3575
0.347506
0.365043
0.354825
0.3762
0.37161
0.360632
0.343152
0.379858
0.366949
0.35838
0.357488
0.368973
0.377174
0.357414
0.349689
0.363815
0.385441
0.35773
0.352392
0.364622
0.373094
0.363926
0.371576
0.385487
0.341934
0.379324
0.362961
0.359862
0.367495
0.359832
0.361659
0.374797
0.374966
0.355257
0.364633
0.393746
0.360095
0.35875
0.367139
0.357103
0.371689
0.357762
0.36671
0.364462
0.363786
0.388718
0.366084
0.35747
0.391916
0.362637
0.347093
0.365268
0.346781
0.358346
0.374078
0.367417
0.366378
0.376588
0.380505
0.366576
0.370947
0.36382
0.370035
0.382619
0.367516
0.35496
0.353471
0.356709
0.371766
0.352921
0.355699
0.3656
0.387059
0.369859
0.352108
0.368743
0.378953
0.3781
0.362543
0.363421
0.349646
0.393657
0.376997
0.377683
0.368586
0.384636
0.372454
0.366022
0.350519
0.358058
0.364475
0.36906
0.349549
0.361213
0.367379
0.374349
0.357882
0.36424
0.370496
0.380928
0.373382
0.361254
0.37254
0.380344
0.367793
0.373512
0.377709
0.361747
0.352209
0.35851
0.374401
0.361451
0.375864
0.373897
0.346533
0.359963
0.374174
0.366863
0.360819
0.347507
0.359549
0.372169
0.376124
0.369483
0.371685
0.374187
0.366415
0.366867
0.351801
0.39725
0.366568
0.364207
0.360656
0.369414
0.349609
0.371549
0.359595
0.356996
0.371522
0.36905
0.361456
0.368148
0.369604
0.386325
0.375333
0.356393
0.35872
0.380149
0.372108
0.36603
0.370989
0.347556
0.380665
0.373405
0.362685
0.356358
0.376368
0.364539
0.364339
0.360768
0.360018
0.348745
0.391682
0.374665
0.350679
0.36869
0.379297
0.360781
0.357019
0.352545
0.376857
0.373221
0.352036
0.354531
0.344152
0.370857
0.356042
0.363516
0.368862
0.360746
0.374728
0.376419
0.370132
0.372767
0.381761
0.361976
0.349325
0.356894
0.34597
0.373274
0.382607
0.3699
0.377412
0.380289
0.362745
0.369617
0.365245
0.373941
0.349409
0.34341
0.348358
0.355925
0.385935
0.376338
0.370582
0.374591
0.357129
0.36648
0.368144
0.361116
0.356188
0.367779
0.346042
0.365149
0.392317
0.371196
0.356595
0.379162
0.359926
0.371568
0.362178
0.366807
0.361587
0.350255
0.389163
0.37063
0.370952
0.36782
0.352647
0.372034
0.377564
0.367538
0.360551
0.351902
0.38042
0.374509
0.359135
0.361199
0.351584
0.369937
0.355176
0.36296
0.365962
0.359477
0.370554
0.363077
0.373517
0.386918
0.335781
0.364945
0.362539
0.378206
0.373486
0.367714
0.354864
0.358065
0.355496
0.381041
0.377523
0.367128
0.357428
0.364693
0.382722
0.375576
0.372911
0.365061
0.359713
0.360157
0.376012
0.364194
0.365671
0.377814
0.371246
0.358094
0.389335
0.366012
0.358874
0.357368
0.386388
0.354586
0.344752
0.373435
0.390605
0.38254
0.372865
0.346432
0.35455
0.365245
0.389849
0.35605
0.360789
0.3778
0.366639
0.371729
0.364239
0.373646
0.381326
0.362231
0.364926
0.379395
0.37
0.346874
0.348942
0.385725
0.367747
0.377352
0.35779
0.341735
0.366438
0.382775
0.355873
0.359001
0.363527
0.36027
0.369549
0.372302
0.358396
0.37338
0.382841
0.385756
0.375929
0.364877
0.361644
0.363736
0.388229
0.373539
0.363973
0.366026
0.357434
0.363294
0.365538
0.368711
0.397161
0.380499
0.354665
0.346496
0.349338
0.379859
0.372956
0.378252
0.360751
0.359247
0.373272
0.373775
0.357916
0.347036
0.361277
0.369453
0.371315
0.372764
0.365023
0.383367
0.359493
0.360959
0.377189
0.358864
0.361357
0.375694
0.383505
0.348598
0.351921
0.354147
0.355019
0.361924
0.358784
0.371998
0.379833
0.365528
0.363321
0.364453
0.376486
0.35303
0.360465
0.367762
0.371766
0.369169
0.362562
0.375853
0.356205
0.362623
0.355034
0.372945
0.378745
0.37429
0.366398
0.367614
0.383172
0.373193
0.353641
0.365392
0.382317
0.352678
0.351749
0.363718
0.369774
0.359055
0.358318
0.388249
0.345878
0.371629
0.381902
0.376075
0.371111
0.350312
0.370848
0.354613
0.388393
0.357323
0.353516
0.356561
0.370983
0.362915
0.361208
0.382159
0.374685
0.355866
0.369766
0.343973
0.346845
0.379543
0.36483
0.374335
0.368057
0.369549
0.372296
0.379567
0.363204
0.353257
0.352724
0.382014
0.38984
0.368374
0.368072
0.374729
0.35757
0.360852
0.366348
0.352255
0.366013
0.390354
0.397242
0.358292
0.362088
0.369051
0.360303
0.360145
0.377047
0.368374
0.355866
0.385129
0.369122
0.352568
0.364587
0.372413
0.355131
0.360983
0.36428
0.371851
0.371444
0.356361
0.338531
0.363005
0.385119
0.361074
0.36978
0.371254
0.350545
0.38496
0.368328
0.359183
0.382144
0.387937
0.364394
0.357878
0.375359
0.339335
0.37075
0.359926
0.368555
0.359812
0.388081
0.37762
0.377322
0.369175
0.356589
0.372361
0.370489
0.362843
0.358489
0.37374
0.380577
0.383718
0.380091
0.364039
0.353509
0.354824
0.36431
0.365917
0.350659
0.382848
0.362575
0.364771
0.386436
0.366592
0.369008
0.350176
0.376478
0.363825
0.360866
0.362059
0.361387
0.3802
0.358957
0.358416
0.374161
0.388891
0.382299
0.36217
0.371888
0.357652
0.349336
0.358848
0.375415
0.36383
0.372727
0.36048
0.365537
0.349453
0.380087
0.364646
0.36628
0.356471
0.363433
0.384899
0.3732
0.364297
0.349423
0.369527
0.385725
0.3696
0.352395
0.36054
0.378209
0.356947
0.369742
0.36958
0.380316
0.363481
0.364947
0.354514
0.373256
0.374449
0.369139
0.36966
0.354823
0.362073
0.34874
0.36149
0.376072
0.374297
0.379991
0.370315
0.371263
0.360783
0.364303
0.363966
0.358862
0.35333
0.361446
0.377598
0.366406
0.376658
0.365443
0.361589
0.370779
0.35776
0.367814
0.36572
0.357003
0.361736
0.3817
0.366108
0.375672
0.380916
0.374036
0.369663
0.359371
0.380972
0.357814
0.357448
0.379568
0.370999
0.349137
0.353462
0.37617
0.366473
0.368034
0.357724
0.354622
0.368392
0.36963
0.367894
0.377095
0.35688
0.342673
0.352088
0.361381
0.371897
0.385811
0.362086
0.351526
0.334216
0.366318
0.391408
0.363474
0.346486
0.37826
0.367233
0.357959
0.371364
0.38405
0.378832
0.359064
0.37821
0.371256
0.365017
0.358463
0.35492
0.354427
0.381156
0.372497
0.365161
0.339164
0.35148
0.363996
0.370644
0.370725
0.360117
0.352635
0.38113
0.400042
0.371303
0.369759
0.353748
0.355845
0.38253
0.388534
0.365645
0.358655
0.376955
0.368571
0.351591
0.366946
0.383112
0.355009
0.366272
0.371773
0.37428
0.374462
0.359443
0.384065
0.374302
0.359568
0.363859
0.343948
0.365634
0.352952
0.357121
0.378097
0.384677
0.36852
0.358144
0.37416
0.36682
0.329847
0.379638
0.376892
0.363125
0.354431
0.375374
0.373956
0.372593
0.353379
0.365796
0.369356
0.37495
0.365676
0.357167
0.368409
0.366743
0.392635
0.364352
0.361845
0.369458
0.352894
0.36719
0.351589
0.356429
0.350104
0.374554
0.370213
0.377977
0.388415
0.367644
0.370207
0.367422
0.378543
0.356259
0.350696
0.381939
0.363964
0.360278
0.369139
0.352024
0.370706
0.369686
0.371939
0.366062
0.357533
0.346623
0.359208
0.363623
0.372241
0.378523
0.375095
0.358653
0.363518
0.360869
0.381296
0.359076
0.355083
0.379109
0.367239
0.359082
0.382801
0.380728
0.370558
0.371821
0.371895
0.357561
0.364268
0.369308
0.369257
0.360978
0.353469
0.366874
0.357674
0.363869
0.366495
0.366119
0.372506
0.364154
0.362754
0.383483
0.387137
0.370643
0.350545
0.363663
0.386618
0.366882
0.372512
0.36239
0.371677
0.380156
0.352443
0.367879
0.34492
0.370603
0.383674
0.388864
0.359792
0.362554
0.360813
0.353665
0.367505
0.3826
0.350614
0.351292
0.378427
0.376278
0.362856
0.373683
0.35752
0.372768
0.365652
0.362778
0.369784
0.36635
0.374108
0.368943
0.375876
0.378555
0.360182
0.366133
0.363338
0.379589
0.380153
0.359255
0.34918
0.36477
0.363624
0.374643
0.388535
0.381656
0.372906
0.342293
0.36789
0.356786
0.370698
0.368517
0.367465
0.353558
0.374116
0.38292
0.374459
0.348504
0.363122
0.376161
0.375938
0.372392
0.379758
0.377981
0.371038
0.363274
0.346056
0.357179
0.353696
0.379035
0.380369
0.357215
0.377326
0.381523
0.372185
0.35866
0.355656
0.359706
0.359846
0.3781
0.37702
0.37243
0.377067
0.379521
0.366902
0.361895
0.369304
0.365227
0.370919
0.355771
0.352949
0.362601
0.347378
0.38047
0.383114
0.367783
0.359032
0.354282
0.382036
0.371223
0.370941
0.348532
0.365602
0.365705
0.363477
0.368779
0.364446
0.359974
0.37002
0.364542
0.368305
0.371432
0.352
0.357625
0.363243
0.367611
0.368075
0.365022
0.360613
0.372606
0.369872
0.377413
0.36388
0.367775
0.367364
0.374007
0.375
0.367176
0.353916
0.356498
0.368056
0.370098
0.357869
0.368455
0.368851
0.368637
0.38114
0.36445
0.368009
0.384467
0.379196
0.369163
0.363632
0.368686
0.36125
0.370375
0.361656
0.361944
0.378043
0.370694
0.35057
0.34288
0.377032
0.370878
0.366293
0.351159
0.355491
0.391345
0.38882
0.378648
0.374734
0.378969
0.35671
0.369051
0.36428
0.35754
0.372434
0.368801
0.356749
0.371158
0.383689
0.372735
0.360921
0.352468
0.367586
0.389363
0.35826
0.363144
0.36032
0.375613
0.361299
0.366663
0.351617
0.374721
0.360184
0.367108
0.372415
0.373523
0.369771
0.37658
0.370339
0.344602
0.355713
0.35969
0.353021
0.357713
0.380431
0.377411
0.373933
0.368892
0.355401
0.372158
0.366607
0.383156
0.363798
0.348873
0.398305
0.377173
0.34866
0.352183
0.366229
0.377801
0.348335
0.357829
0.36231
0.373204
0.367006
0.365675
0.365958
0.369259
0.36623
0.368384
0.375687
0.370877
0.374945
0.366147
0.342474
0.367618
0.374353
0.385273
0.380377
0.363505
0.380586
0.36607
0.371718
0.375155
0.366259
0.346672
0.354066
0.359757
0.374473
0.354055
0.371398
0.360442
0.36132
0.357824
0.370745
0.362675
0.379746
0.376645
0.375626
0.346437
0.362639
0.367323
0.359635
0.371005
0.384019
0.362576
0.354842
0.363685
0.371311
0.343845
0.363217
0.370629
0.382293
0.38711
0.367316
0.355391
0.363242
0.371731
0.365392
0.377372
0.37234
0.349816
0.363476
0.382954
0.35642
0.370839
0.377264
0.370374
0.362072
0.366034
0.364138
0.370747
0.351956
0.359962
0.367278
0.380421
0.352495
0.379543
0.370128
0.365525
0.353627
0.368413
0.365227
0.351332
0.358918
0.364934
0.368196
0.367234
0.373901
0.358937
0.356048
0.359065
0.372404
0.363186
0.37055
0.368993
0.366877
0.362533
0.352796
0.377227
0.379241
0.367856
0.365444
0.353876
0.351038
0.379566
0.368729
0.352165
0.368265
0.371883
0.362609
0.368234
0.36077
0.372938
0.361956
0.357145
0.37631
0.361864
0.35399
0.359781
0.386324
0.374571
0.372222
0.376439
0.365711
0.35345
0.363648
0.36922
0.364469
0.358281
0.368018
0.38611
0.365161
0.354062
0.375882
0.376844
0.38326
SCALARS Coverage1 float 1
LOOKUP_TABLE default
0.191432
0.196125
0.193501
0.191688
0.17389
0.177863
0.196312
0.196312
0.207352
0.195075
0.201731
0.192839
0.189804
0.177625
0.16916
0.198291
0.176168
0.175788
0.177373
0.191229
0.223897
0.197313
0.188664
0.173004
0.181062
0.211096
0.18201
0.189024
0.180629
0.189474
0.167751
0.189374
0.193207
0.192757
0.172028
0.181205
0.192885
0.196538
0.200493
0.195187
0.186687
0.182964
0.202918
0.185764
0.196894
0.204704
0.207473
0.197163
0.152913
0.165492
0.196197
0.192928
0.190582
0.173489
0.164452
0.175597
0.182067
0.195937
0.197662
0.18797
0.175524
0.18726
0.189173
0.187669
0.196763
0.215666
0.212718
0.183255
0.188245
0.185767
0.194683
0.190136
0.196407
0.205253
0.176213
0.171795
0.169259
0.165266
0.187317
0.185482
0.182184
0.208854
0.17826
0.17711
0.171298
0.185324
0.194554
0.203101
0.19905
0.176654
0.208688
0.20391
0.191329
0.186304
0.165016
0.149395
0.158041
0.188056
0.176135
0.163488
0.175298
0.207182
0.192457
0.167608
0.196852
0.199377
0.194814
0.209344
0.19528
0.185231
0.192085
0.192085
0.163345
0.173936
0.19011
0.17264
0.181284
0.181843
0.190096
0.181208
0.180271
0.188212
0.183657
0.171437
0.189248
0.182033
0.178342
0.190572
0.183445
0.189896
0.176731
0.186793
0.182327
0.165925
0.190563
0.194993
0.204315
0.206824
0.167942
0.181048
0.176265
0.164953
0.185862
0.171384
0.193398
0.16938
0.182108
0.191432
0.196312
0.19399
0.168468
0.162095
0.173501
0.172382
0.172119
0.171834
0.185205
0.177357
0.18712
0.19424
0.181212
0.189516
0.191527
0.193049
0.179205
0.174036
0.178908
0.189162
0.20138
0.184619
0.188193
0.170028
0.175895
0.183819
0.1913
0.186412
0.184018
0.210004
0.213665
0.165039
0.174031
0.193675
0.194956
0.194956
0.215706
0.19456
0.194811
0.170235
0.199273
0.179093
0.177937
0.171259
0.185411
0.198583
0.173477
0.17622
0.174033
0.175062
0.178883
0.170209
0.163033
0.173673
0.20603
0.186005
0.199212
0.193063
0.163345
0.179953
0.176866
0.181831
0.188967
0.167944
0.176433
0.178216
0.182349
0.189535
0.181601
0.177628
0.188034
0.196352
0.195286
0.184341
0.184987
0.17399
0.183037
0.186192
0.19098
0.201811
0.172474
0.183042
0.195749
0.20543
0.193102
0.16172
0.16172
0.177235
0.185982
0.186927
0.182482
0.176442
0.18331
0.181926
0.173904
0.195049
0.208947
0.202618
0.197667
0.191788
0.187332
0.215706
0.193102
0.188538
0.201862
0.181791
0.187225
0.200271
0.168458
0.159061
0.176786
0.180894
0.182019
0.184548
0.190127
0.198188
0.184651
0.179876
0.18571
0.18571
0.216049
0.216049
0.195682
0.188087
0.173567
0.168921
0.198821
0.200914
0.176713
0.189757
0.193127