# vtk DataFile Version 2.0
2D Surface
ASCII
DATASET UNSTRUCTURED_GRID
POINTS 3009 float
7.09586e-05 -3.681e-05 0. 
7.101e-05 -3.6814e-05 0. 
7.11e-05 -3.6812e-05 0. 
7.119e-05 -3.68212e-05 0. 
7.128e-05 -3.68306e-05 0. 
7.137e-05 -3.68353e-05 0. 
7.146e-05 -3.6834e-05 0. 
7.155e-05 -3.6838e-05 0. 
7.164e-05 -3.68534e-05 0. 
7.173e-05 -3.68569e-05 0. 
7.182e-05 -3.68557e-05 0. 
7.191e-05 -3.68594e-05 0. 
7.2e-05 -3.68599e-05 0. 
7.209e-05 -3.68638e-05 0. 
7.218e-05 -3.68639e-05 0. 
7.227e-05 -3.686e-05 0. 
7.236e-05 -3.68622e-05 0. 
7.245e-05 -3.68646e-05 0. 
7.254e-05 -3.68646e-05 0. 
7.263e-05 -3.68655e-05 0. 
7.272e-05 -3.68596e-05 0. 
7.281e-05 -3.68688e-05 0. 
7.29e-05 -3.68709e-05 0. 
7.299e-05 -3.68785e-05 0. 
7.308e-05 -3.68786e-05 0. 
7.317e-05 -3.68786e-05 0. 
7.326e-05 -3.68848e-05 0. 
7.335e-05 -3.68813e-05 0. 
7.344e-05 -3.6878e-05 0. 
7.353e-05 -3.68683e-05 0. 
7.362e-05 -3.68609e-05 0. 
7.371e-05 -3.68638e-05 0. 
7.38e-05 -3.68633e-05 0. 
7.389e-05 -3.68697e-05 0. 
7.398e-05 -3.68664e-05 0. 
7.407e-05 -3.68659e-05 0. 
7.416e-05 -3.68555e-05 0. 
7.425e-05 -3.68615e-05 0. 
7.434e-05 -3.68638e-05 0. 
7.443e-05 -3.68636e-05 0. 
7.452e-05 -3.68582e-05 0. 
7.461e-05 -3.68558e-05 0. 
7.47e-05 -3.68603e-05 0. 
7.479e-05 -3.68632e-05 0. 
7.488e-05 -3.6859e-05 0. 
7.497e-05 -3.68567e-05 0. 
7.506e-05 -3.68613e-05 0. 
7.515e-05 -3.68622e-05 0. 
7.524e-05 -3.68635e-05 0. 
7.533e-05 -3.68609e-05 0. 
7.542e-05 -3.68606e-05 0. 
7.551e-05 -3.68674e-05 0. 
7.56e-05 -3.68671e-05 0. 
7.569e-05 -3.68732e-05 0. 
7.578e-05 -3.68651e-05 0. 
7.587e-05 -3.68633e-05 0. 
7.596e-05 -3.68645e-05 0. 
7.605e-05 -3.68584e-05 0. 
7.614e-05 -3.68573e-05 0. 
7.623e-05 -3.68559e-05 0. 
7.632e-05 -3.68553e-05 0. 
7.641e-05 -3.6861e-05 0. 
7.65e-05 -3.68602e-05 0. 
7.659e-05 -3.68651e-05 0. 
7.668e-05 -3.6867e-05 0. 
7.677e-05 -3.68635e-05 0. 
7.686e-05 -3.68631e-05 0. 
7.695e-05 -3.68585e-05 0. 
7.704e-05 -3.68503e-05 0. 
7.713e-05 -3.68485e-05 0. 
7.722e-05 -3.68462e-05 0. 
7.731e-05 -3.68478e-05 0. 
7.74e-05 -3.68461e-05 0. 
7.749e-05 -3.68481e-05 0. 
7.758e-05 -3.68443e-05 0. 
7.767e-05 -3.68437e-05 0. 
7.776e-05 -3.68461e-05 0. 
7.785e-05 -3.68375e-05 0. 
7.794e-05 -3.68392e-05 0. 
7.803e-05 -3.68351e-05 0. 
7.812e-05 -3.68346e-05 0. 
7.821e-05 -3.68343e-05 0. 
7.83e-05 -3.68365e-05 0. 
7.839e-05 -3.68361e-05 0. 
7.848e-05 -3.68298e-05 0. 
7.857e-05 -3.68313e-05 0. 
7.866e-05 -3.68276e-05 0. 
7.875e-05 -3.68251e-05 0. 
7.884e-05 -3.68293e-05 0. 
7.893e-05 -3.68328e-05 0. 
7.902e-05 -3.68261e-05 0. 
7.911e-05 -3.68276e-05 0. 
7.92e-05 -3.68256e-05 0. 
7.929e-05 -3.6827e-05 0. 
7.938e-05 -3.68325e-05 0. 
7.947e-05 -3.68317e-05 0. 
7.956e-05 -3.683e-05 0. 
7.965e-05 -3.68336e-05 0. 
7.974e-05 -3.68296e-05 0. 
7.983e-05 -3.68247e-05 0. 
7.992e-05 -3.68169e-05 0. 
8.001e-05 -3.68126e-05 0. 
8.01e-05 -3.68156e-05 0. 
8.019e-05 -3.68104e-05 0. 
8.02079e-05 -3.681e-05 0. 
6.87191e-05 -3.672e-05 0. 
6.876e-05 -3.67242e-05 0. 
6.885e-05 -3.67313e-05 0. 
6.894e-05 -3.67342e-05 0. 
6.903e-05 -3.67412e-05 0. 
6.912e-05 -3.67421e-05 0. 
6.921e-05 -3.67432e-05 0. 
6.93e-05 -3.67448e-05 0. 
6.939e-05 -3.67478e-05 0. 
6.948e-05 -3.67562e-05 0. 
6.957e-05 -3.67642e-05 0. 
6.966e-05 -3.67692e-05 0. 
6.975e-05 -3.67712e-05 0. 
6.984e-05 -3.67687e-05 0. 
6.993e-05 -3.67684e-05 0. 
7.002e-05 -3.6781e-05 0. 
7.011e-05 -3.67845e-05 0. 
7.02e-05 -3.67829e-05 0. 
7.029e-05 -3.67856e-05 0. 
7.038e-05 -3.67922e-05 0. 
7.047e-05 -3.6798e-05 0. 
7.056e-05 -3.67989e-05 0. 
7.065e-05 -3.68018e-05 0. 
7.074e-05 -3.68061e-05 0. 
7.083e-05 -3.68037e-05 0. 
7.092e-05 -3.6807e-05 0. 
8.028e-05 -3.68083e-05 0. 
8.037e-05 -3.67962e-05 0. 
8.046e-05 -3.67894e-05 0. 
8.055e-05 -3.67905e-05 0. 
8.064e-05 -3.67895e-05 0. 
8.073e-05 -3.67815e-05 0. 
8.082e-05 -3.67783e-05 0. 
8.091e-05 -3.67729e-05 0. 
8.1e-05 -3.67639e-05 0. 
8.109e-05 -3.67557e-05 0. 
8.118e-05 -3.67545e-05 0. 
8.127e-05 -3.6753e-05 0. 
8.136e-05 -3.67523e-05 0. 
8.145e-05 -3.67492e-05 0. 
8.154e-05 -3.67347e-05 0. 
8.163e-05 -3.67281e-05 0. 
8.172e-05 -3.67231e-05 0. 
8.17474e-05 -3.672e-05 0. 
6.65722e-05 -3.663e-05 0. 
6.66e-05 -3.66337e-05 0. 
6.669e-05 -3.6643e-05 0. 
6.678e-05 -3.66418e-05 0. 
6.687e-05 -3.66405e-05 0. 
6.696e-05 -3.66427e-05 0. 
6.705e-05 -3.66504e-05 0. 
6.714e-05 -3.66564e-05 0. 
6.723e-05 -3.66629e-05 0. 
6.732e-05 -3.6674e-05 0. 
6.741e-05 -3.66752e-05 0. 
6.75e-05 -3.66763e-05 0. 
6.759e-05 -3.66782e-05 0. 
6.768e-05 -3.6674e-05 0. 
6.777e-05 -3.66731e-05 0. 
6.786e-05 -3.66784e-05 0. 
6.795e-05 -3.66849e-05 0. 
6.804e-05 -3.66884e-05 0. 
6.813e-05 -3.66946e-05 0. 
6.822e-05 -3.66991e-05 0. 
6.831e-05 -3.67037e-05 0. 
6.84e-05 -3.67061e-05 0. 
6.849e-05 -3.67123e-05 0. 
6.858e-05 -3.6716e-05 0. 
6.867e-05 -3.67149e-05 0. 
8.181e-05 -3.6713e-05 0. 
8.19e-05 -3.67097e-05 0. 
8.199e-05 -3.67074e-05 0. 
8.208e-05 -3.66999e-05 0. 
8.217e-05 -3.66923e-05 0. 
8.226e-05 -3.66828e-05 0. 
8.235e-05 -3.66837e-05 0. 
8.244e-05 -3.66805e-05 0. 
8.253e-05 -3.66754e-05 0. 
8.262e-05 -3.66755e-05 0. 
8.271e-05 -3.66735e-05 0. 
8.28e-05 -3.66627e-05 0. 
8.289e-05 -3.66599e-05 0. 
8.298e-05 -3.66549e-05 0. 
8.307e-05 -3.66506e-05 0. 
8.316e-05 -3.66415e-05 0. 
8.325e-05 -3.66397e-05 0. 
8.334e-05 -3.66412e-05 0. 
8.343e-05 -3.66332e-05 0. 
8.3461e-05 -3.663e-05 0. 
6.52462e-05 -3.654e-05 0. 
6.525e-05 -3.65404e-05 0. 
6.534e-05 -3.65456e-05 0. 
6.543e-05 -3.65572e-05 0. 
6.552e-05 -3.65645e-05 0. 
6.561e-05 -3.65717e-05 0. 
6.57e-05 -3.65806e-05 0. 
6.579e-05 -3.65909e-05 0. 
6.588e-05 -3.65901e-05 0. 
6.597e-05 -3.65916e-05 0. 
6.606e-05 -3.66e-05 0. 
6.615e-05 -3.65993e-05 0. 
6.624e-05 -3.65976e-05 0. 
6.633e-05 -3.66057e-05 0. 
6.642e-05 -3.66124e-05 0. 
6.651e-05 -3.66217e-05 0. 
8.352e-05 -3.66239e-05 0. 
8.361e-05 -3.66197e-05 0. 
8.37e-05 -3.66166e-05 0. 
8.379e-05 -3.66103e-05 0. 
8.388e-05 -3.66017e-05 0. 
8.397e-05 -3.65926e-05 0. 
8.406e-05 -3.6588e-05 0. 
8.415e-05 -3.65871e-05 0. 
8.424e-05 -3.65771e-05 0. 
8.433e-05 -3.65706e-05 0. 
8.442e-05 -3.65595e-05 0. 
8.451e-05 -3.65586e-05 0. 
8.46e-05 -3.65546e-05 0. 
8.469e-05 -3.65463e-05 0. 
8.47768e-05 -3.654e-05 0. 
8.47899e-05 -3.654e-05 0. 
8.487e-05 -3.65419e-05 0. 
8.48878e-05 -3.654e-05 0. 
6.39643e-05 -3.645e-05 0. 
6.399e-05 -3.64513e-05 0. 
6.408e-05 -3.64562e-05 0. 
6.417e-05 -3.64628e-05 0. 
6.426e-05 -3.64758e-05 0. 
6.435e-05 -3.64862e-05 0. 
6.444e-05 -3.64923e-05 0. 
6.453e-05 -3.64993e-05 0. 
6.462e-05 -3.65044e-05 0. 
6.471e-05 -3.65034e-05 0. 
6.48e-05 -3.65076e-05 0. 
6.489e-05 -3.65192e-05 0. 
6.498e-05 -3.65219e-05 0. 
6.507e-05 -3.65249e-05 0. 
6.516e-05 -3.6531e-05 0. 
8.478e-05 -3.65398e-05 0. 
8.496e-05 -3.65323e-05 0. 
8.505e-05 -3.65207e-05 0. 
8.514e-05 -3.65203e-05 0. 
8.523e-05 -3.65156e-05 0. 
8.532e-05 -3.65144e-05 0. 
8.541e-05 -3.6512e-05 0. 
8.55e-05 -3.65072e-05 0. 
8.559e-05 -3.65054e-05 0. 
8.568e-05 -3.64967e-05 0. 
8.577e-05 -3.64901e-05 0. 
8.586e-05 -3.6479e-05 0. 
8.595e-05 -3.64663e-05 0. 
8.604e-05 -3.64566e-05 0. 
8.60944e-05 -3.645e-05 0. 
6.28405e-05 -3.636e-05 0. 
6.291e-05 -3.63649e-05 0. 
6.3e-05 -3.63701e-05 0. 
6.309e-05 -3.63753e-05 0. 
6.318e-05 -3.63777e-05 0. 
6.327e-05 -3.63921e-05 0. 
6.336e-05 -3.64032e-05 0. 
6.345e-05 -3.64109e-05 0. 
6.354e-05 -3.64165e-05 0. 
6.363e-05 -3.64167e-05 0. 
6.372e-05 -3.64224e-05 0. 
6.381e-05 -3.64333e-05 0. 
6.39e-05 -3.64467e-05 0. 
8.613e-05 -3.64457e-05 0. 
8.622e-05 -3.64371e-05 0. 
8.631e-05 -3.64299e-05 0. 
8.64e-05 -3.64251e-05 0. 
8.649e-05 -3.64152e-05 0. 
8.658e-05 -3.64069e-05 0. 
8.667e-05 -3.64003e-05 0. 
8.676e-05 -3.63928e-05 0. 
8.685e-05 -3.63881e-05 0. 
8.694e-05 -3.63825e-05 0. 
8.703e-05 -3.63757e-05 0. 
8.712e-05 -3.63673e-05 0. 
8.71745e-05 -3.636e-05 0. 
6.21657e-05 -3.627e-05 0. 
6.219e-05 -3.62769e-05 0. 
6.228e-05 -3.62861e-05 0. 
6.237e-05 -3.63063e-05 0. 
6.246e-05 -3.63189e-05 0. 
6.255e-05 -3.63272e-05 0. 
6.264e-05 -3.63348e-05 0. 
6.273e-05 -3.63502e-05 0. 
6.282e-05 -3.63585e-05 0. 
8.721e-05 -3.63553e-05 0. 
8.73e-05 -3.63428e-05 0. 
8.739e-05 -3.63276e-05 0. 
8.748e-05 -3.63174e-05 0. 
8.757e-05 -3.6304e-05 0. 
8.766e-05 -3.62902e-05 0. 
8.775e-05 -3.62734e-05 0. 
8.77633e-05 -3.627e-05 0. 
6.18119e-05 -3.618e-05 0. 
6.183e-05 -3.61981e-05 0. 
6.192e-05 -3.62139e-05 0. 
6.201e-05 -3.62476e-05 0. 
6.21e-05 -3.62513e-05 0. 
8.784e-05 -3.62506e-05 0. 
8.793e-05 -3.62325e-05 0. 
8.802e-05 -3.62039e-05 0. 
8.811e-05 -3.61907e-05 0. 
8.81274e-05 -3.618e-05 0. 
6.17274e-05 -3.609e-05 0. 
6.174e-05 -3.61035e-05 0. 
8.82e-05 -3.61354e-05 0. 
8.82454e-05 -3.609e-05 0. 
6.16915e-05 -3.6e-05 0. 
8.829e-05 -3.60092e-05 0. 
8.82951e-05 -3.6e-05 0. 
6.16862e-05 -3.591e-05 0. 
8.8309e-05 -3.591e-05 0. 
6.16862e-05 -3.582e-05 0. 
8.83129e-05 -3.582e-05 0. 
6.16854e-05 -3.573e-05 0. 
8.83148e-05 -3.573e-05 0. 
6.16854e-05 -3.564e-05 0. 
8.83173e-05 -3.564e-05 0. 
6.16853e-05 -3.555e-05 0. 
8.83184e-05 -3.555e-05 0. 
6.16843e-05 -3.546e-05 0. 
8.83213e-05 -3.546e-05 0. 
6.16852e-05 -3.537e-05 0. 
8.83213e-05 -3.537e-05 0. 
6.16839e-05 -3.528e-05 0. 
8.83191e-05 -3.528e-05 0. 
6.16855e-05 -3.519e-05 0. 
8.8322e-05 -3.519e-05 0. 
6.16852e-05 -3.51e-05 0. 
8.83226e-05 -3.51e-05 0. 
6.16819e-05 -3.501e-05 0. 
8.83194e-05 -3.501e-05 0. 
6.16798e-05 -3.492e-05 0. 
8.83202e-05 -3.492e-05 0. 
6.16799e-05 -3.483e-05 0. 
8.83203e-05 -3.483e-05 0. 
6.16825e-05 -3.474e-05 0. 
8.83195e-05 -3.474e-05 0. 
6.16774e-05 -3.465e-05 0. 
8.83223e-05 -3.465e-05 0. 
6.16748e-05 -3.456e-05 0. 
8.83152e-05 -3.456e-05 0. 
6.16745e-05 -3.447e-05 0. 
8.83165e-05 -3.447e-05 0. 
6.16732e-05 -3.438e-05 0. 
8.83172e-05 -3.438e-05 0. 
6.16729e-05 -3.429e-05 0. 
8.83139e-05 -3.429e-05 0. 
6.16732e-05 -3.42e-05 0. 
8.83146e-05 -3.42e-05 0. 
6.1669e-05 -3.411e-05 0. 
8.83147e-05 -3.411e-05 0. 
6.16691e-05 -3.402e-05 0. 
8.8316e-05 -3.402e-05 0. 
6.16691e-05 -3.393e-05 0. 
8.83184e-05 -3.393e-05 0. 
6.16659e-05 -3.384e-05 0. 
8.83171e-05 -3.384e-05 0. 
6.16652e-05 -3.375e-05 0. 
8.83193e-05 -3.375e-05 0. 
6.16641e-05 -3.366e-05 0. 
[...]
POINT_DATA 3009
SCALARS Coverage0 float 1
LOOKUP_TABLE default
0.196732
0.176696
0.209339
0.229436
0.22139
0.211348
0.20533
0.201346
0.23135
0.2378
0.214271
0.237655
0.21538
0.198035
0.220802
0.22656
0.202037
0.186521
0.211975
0.237007
0.218203
0.220722
0.214886
0.230221
0.215838
0.206938
0.205735
0.20133
0.205162
0.202033
0.203596
0.212535
0.199772
0.21143
0.204754
0.173028
0.198123
0.209249
0.198012
0.194426
0.184273
0.213717
0.240878
0.206132
0.200074
0.201421
0.217872
0.230602
0.213849
0.206826
0.198751
0.210344
0.202687
0.181224
0.212556
0.204436
0.184893
0.204029
0.186792
0.183935
0.213415
0.225537
0.204303
0.199974
0.219441
0.201037
0.192603
0.185683
0.208392
0.20484
0.190031
0.210793
0.206568
0.196083
0.185556
0.20063
0.194799
0.199258
0.223368
0.221242
0.226684
0.221223
0.193323
0.215426
0.210122
0.201386
0.21266
0.236457
0.223011
0.210316
0.21983
0.25163
0.211917
0.180343
0.190355
0.211461
0.218809
0.232458
0.221731
0.205311
0.210779
0.209806
0.214703
0.226201
0.226201
0.205362
0.205362
0.216371
0.211782
0.204734
0.20161
0.189656
0.191939
0.216056
0.221054
0.231603
0.230062
0.20745
0.180212
0.214579
0.221234
0.221158
0.212966
0.212234
0.232485
0.217871
0.204102
0.218635
0.206125
0.229105
0.196732
0.185634
0.20041
0.198774
0.210663
0.212004
0.199157
0.210204
0.211081
0.183247
0.190248
0.203475
0.204009
0.20047
0.190262
0.205206
0.202879
0.218058
0.218058
0.184678
0.184678
0.206315
0.186563
0.203568
0.199862
0.194239
0.19891
0.198236
0.197134
0.207062
0.225164
0.220244
0.201964
0.211088
0.205704
0.237542
0.206779
0.202655
0.205694
0.198169
0.188303
0.190195
0.227825
0.21481
0.210615
0.225008
0.209727
0.212434
0.203928
0.220172
0.224323
0.224604
0.20452
0.208545
0.233514
0.201033
0.211866
0.214579
0.215216
0.211252
0.208551
0.195569
0.197958
0.197958
0.219581
0.219581
0.206849
0.216821
0.223956
0.213663
0.216808
0.201447
0.200026
0.199831
0.187129
0.195568
0.175451
0.187854
0.214151
0.207503
0.18982
0.218618
0.209683
0.189114
0.212
0.200435
0.219082
0.191411
0.177152
0.214749
0.194688
0.21452
0.240817
0.197129
0.193696
0.193696
0.221014
0.221014
0.188156
0.188156
0.194782
0.208649
0.241855
0.232046
0.202748
0.199759
0.197695
0.220461
0.217383
0.217438
0.245132
0.233995
0.206613
0.193696
0.21521
0.195599
0.225659
0.211502
0.198363
0.204974
0.187893
0.189392
0.193301
0.198072
0.197747
0.196159
0.188551
0.208483
0.206646
0.202516
0.212227
0.195671
0.232533
0.231703
0.20009
0.178915
0.180349
0.175068
0.196581
0.19301
0.202018
0.208483
0.200565
0.205473
0.197179
0.19827
0.203425
0.201798
0.216489
0.19389
0.219607
0.228668
0.221493
0.20524
0.228826
0.228826
0.199191
0.200276
0.21645
0.210385
0.203601
0.224251
0.206646
0.20524
0.197972
0.220693
0.225433
0.231103
0.240426
0.246804
0.246804
0.311227
0.311227
0.262299
0.204951
0.223987
0.210468
0.191827
0.238085
0.264389
0.264389
0.390163
0.390163
0.323134
0.456276
0.626786
0.557706
0.557706
0.958756
0.782758
0.969445
0.905889
0.939119
0.874255
0.972386
0.814176
0.944456
0.94105
0.963575
0.956866
0.988629
0.963328
0.924739
0.705364
0.681536
0.974348
0.831944
0.998378
0.935261
0.990371
0.971673
0.853219
0.996479
0.981559
0.98543
0.831728
0.937548
0.890701
0.968274
0
0.948231
0.684921
0.95566
0.979439
0.95482
0.985293
0.807759
0.87071
0.963097
0.953856
0.983559
0.954943
0.821389
0.929719
0.876103
0.662302
0.835858
0.882137
0.983733
0.999668
0.955363
1
0.948454
0.773605
0.929659
0.927214
0.971369
0.888002
0.999892
0.893789
0.971162
0.883414
0.960532
0.969
0.984818
0.991272
0.869421
0.997323
0.998106
0.981677
1
0.980359
0.863107
0.964203
0.421013
0.979533
0.958417
0.916144
0.998449
0.985711
0.936646
0.95203
0.838952
0.978147
0.79133
0.992762
0.859798
0.86142
0.901963
0.944407
0.745503
0.875152
1
0.948397
0.954676
0.995233
0.977712
0.798445
0.884056
0.792292
0.885481
0.949759
0.912892
0.952118
0.898455
0.880271
0.90219
0
0.881549
0
0.875765
0.875765
1
0.999653
1
0.998779
0.998779
0.905387
0.906351
0.90143
0.895952
0.811675
0.921145
0.895952
0.710444
0.744365
0.794548
0.970521
0.771846
0.991505
0.771846
0
0.875814
1
0.873559
0
0.999356
0
0
0.93395
0.93395
0.738398
0.758715
0.93395
0.889366
0.346979
0.667719
1
0.667719
0.634849
1
0
0.816329
1
0.99267
0.99267
0
0.856798
0.856798
1
0.930876
1
0.930022
0
0.828245
1
0.737214
1
0.999116
0.809408
0.74644
0.74644
0.536965
0.74644
0.942274
1
1
0.646401
0.646401
1
1
0.67004
1
0.59004
1
1
0
1
0
1
0
1
0
0
0.873452
1
0.928017
1
0.933401
0.939028
1
1
0.875555
1
1
0.774562
1
0.840079
1
0.863403
0.863403
0
1
0.854987
1
1
0.997444
0.871889
0.871889
0.911325
0.894608
0.894608
0.80872
1
0.894608
0.833603
1
1
0.839759
0.839759
0.894312
0.853379
1
0.894312
0
0
1
0
0.765706
0.948039
0.701415
0.701415
1
1
0.901993
0.921685
0.921685
1
0.821069
0.921685
1
1
1
1
1
1
1
1
0
0
1
0
1
0
0.815233
1
0.94309
0
0.969135
0
0.775251
0
0
0.783406
0.800454
0.783406
0
0.836831
0.836831
1
0.877732
1
1
1
1
1
0
0.857127
1
1
0.857127
0
1
1
0
1
1
1
1
0.99882
0.616492
1
0.852656
1
0.786006
0.786006
0.821746
0.821746
1
0.762106
0.821746
1
1
0.754154
0.690398
0.690398
0.887138
0.668303
0.884609
0.795465
0
0.884609
0.840819
0
0.999615
0
0.966923
1
0.843775
0
0.803988
0
0
0.803988
0
0.896636
0
0
1
1
0.738282
1
1
0.597473
0.597473
1
0
0
1
0
1
0.982476
1
0.654004
0
0.560643
0
0
0
0.560643
0
0
0
0
0
0.909559
0
0.860186
0
0
0.764057
0
0.764057
0
0
0.951116
0.951116
0
0.828446
0.828446
0.951116
0
0
1
0.790493
0
0.847613
0.847613
0.763663
0.946472
0.812169
0.847613
0.763663
1
1
1
0.946472
0
0
0
0.914784
0
0
1
0.677863
1
1
0.78547
1
1
1
1
1
1
1
1
0
1
0
0.908496
0.908496
0
0
0.908496
1
1
0
0
0
0.950914
0.950914
0
0
0.950914
0
0
0
0
1
1
1
1
0
1
0.818983
1
0.765085
0.765085
1
1
1
1
1
1
1
0.943979
0.943979
1
0.706294
0.943979
1
1
1
1
1
0.706294
1
0
1
0
0.993721
0.993721
1
1
0.717578
0.993721
1
0.680356
0
0.807194
0.807194
1
0.860905
1
0
0
0.860905
0.991155
0.991155
1
0
1
0.991155
0.875107
0.875107
1
0.998127
0.924712
1
1
1
1
0
1
1
1
0
0
0
0
0
1
0
0
1
0
0
1
0
0.910094
0
0.910094
0
0
0
1
1
1
0
1
0.858482
0.858482
1
0.778244
0.778244
0.858482
0.77809
0.77809
0.827974
0.77809
0.902121
0.789231
0
0
1
0.789231
0.95647
0.960854
0
0
1
1
0.95647
0.84912
0.9516
1
0.922259
1
1
0.922259
0
0
1
0
1
0
0.988352
0.988352
1
0.988352
1
0
1
1
0
1
0.984799
0.984799
0
1
0.984799
1
1
0
0
0
1
0.819053
1
0.834099
1
0
1
0
0
0
1
1
1
1
1
1
1
1
0.902158
0.902158
1
0
0.902158
0.737123
0.737123
0
1
1
0
0
0
1
0.987405
1
0.801706
0.168313
0.824049
0.823663
0.801706
0
0
0.822929
0.961986
0.961986
0
1
0
0.822929
0.961986
0.843283
0.843283
1
0.843283
0.804312
1
0.804312
0.957586
1
0.957586
1
1
1
1
1
1
1
1
0
1
1
1
1
1
1
0
1
0
1
0.895945
0.895945
0
0.895945
1
0
1
1
1
1
0
0.937191
0.937191
0.993893
0.960378
0.960378
0.937191
1
0
0
0.643229
0.993893
0.960378
1
1
1
0.643229
1
1
0
1
0
0.993142
0.993142
0
0.850142
0.993142
1
1
0
0
1
0
0
1
1
1
1
0
1
0
1
1
1
1
0
1
0.988913
0.988913
0
0
0.970713
0.970713
0.988913
0
1
1
0.765414
0.00281741
0.970713
0
0
1
0.521526
0.978429
0.978429
0.841833
0.841833
0.978429
0
0
0
0.836924
1
1
0
0
0
1
0
1
1
1
0
1
0
1
1
1
0.966666
0.966666
0
0
1
1
1
1
0.966666
0.494611
0.494611
0.882878
1
1
0
0
0
0
1
0
0
0.989887
0.989887
1
1
1
0
0
0.989887
0.878176
1
1
0.908815
0.908815
1
1
1
0
0
1
0.992253
0.992253
0
1
1
0.992253
0
0
1
0.796574
0
0.929118
0.929118
0
0
0
1
1
1
0
1
0
1
0.9878
0.9878
0.858794
1
1
0
0.9878
1
1
1
0
0
1
0.868986
0.742683
0.742683
0
0
0
0
0
0.868986
0.742683
0
0
0
0
1
0
0
0
1
0.993638
0.993638
1
1
0.993638
0.899013
1
0
0.899013
0
0
0
0.893567
0
0.89616
0.89616
1
0
0
1
1
1
0
1
1
0
1
0
1
1
0.83524
1
1
0.918494
0.918494
1
1
0
0
1
0.923241
0.923241
1
1
0.923241
0
1
1
0
1
1
1
0.99424
0.99424
1
0.723344
0.723344
0.99424
1
1
0.704783
0.966464
0.966464
1
0
1
0.966464
0.830769
0.830769
1
0
0
1
0.907508
0.907508
1
0
1
0.907508
0.808376
0.808376
0
0.838616
1
1
0
1
1
1
0
0
1
1
1
0
1
1
0
0
0.999024
0.999024
1
0.714056
0.999024
0.73382
1
0
0.714056
0
0
0.64968
1
1
0.64968
1
0
0.943763
0.943763
0
0.821902
0.943763
0
0
0.820799
0.997122
0.997122
0.822752
0.822752
0.997122
1
0
0
1
0
1
0
0
1
0
0
1
0
0
0
1
1
0.825408
1
0.825408
1
1
1
1
0
0.962899
0.962899
0
1
1
1
0.945062
0.962899
1
1
1
0.759255
0
0
0
0
0.759255
0
1
1
1
1
0
1
1
0
1
0
1
1
0
0.929391
0
0
0
1
0
0
0
0
1
1
1
0.846068
0.996422
0.996422
0
0.809171
0.809171
0.846068
0.996422
1
1
0
0
0
1
1
1
0.855555
1
1
1
1
1
0.855555
0.936406
0.936406
1
1
0.936406
0.77346
0
0.728529
1
0.728529
0.766972
1
1
0
0
0
0
1
0.894911
0
1
1
1
0
0.894911
1
0
0
0.965528
0.965528
0
1
0
0
0.965528
0
0
0
0
0.882181
0.882181
0
0
0
0
0
0
0.882181
1
1
1
1
1
1
0
1
1
0
0
1
0.755451
1
0.755451
1
0
0
0
0.850295
0.755451
1
1
1
1
1
0.850295
0
0
1
0
0
1
1
0
1
1
0.94004
0.94004
0
1
0
0.94004
0.661863
0.661863
1
1
0
0
1
1
0
1
1
1
1
1
1
0.788975
0.788975
1
1
0.805983
0.787198
0.788975
1
1
1
0
0
0
1
0.906785
1
1
1
1
1
0.997216
0.997216
1
1
1
0.997216
0.454435
0.852474
0
0.908506
0
0.820241
0.820241
0
0.796812
0.796812
0.825129
0.825129
0
0.851304
0.796812
0
0
1
0
0.926261
0.926261
0
0
1
0.926261
0
1
0
0.844045
0.844045
0
0.844045
0.837776
0.837776
0
0.900669
0.900669
1
1
0.900669
0.990889
0.990889
1
1
1
1
0.990889
0.160006
0.694743
0.694743
1
1
0
0
0.985259
0.985259
0.808694
0.808694
0.80031
0.80031
0.893949
0.985259
0.808694
0
0
0
1
0.893949
0
0
0
0
1
0
0
0.800641
1
1
0
0.800641
0.718131
1
1
0.775272
0
0.944774
1
0
0
0
0
0
0.711605
0
0
0
0.890262
0
1
0.439999
1
0.972216
0.976711
0.976711
0.849542
0.846972
0.846972
0.972216
0.976711
0.849542
0.832908
0.700055
0.862249
1
1
0.700055
0.862249
1
1
0
0.902975
0.902975
0.950247
0.950247
1
0.731934
0.731934
0.563405
0.902975
0.950247
0.83813
0.83813
1
0.8951
0
0.658824
0.658824
0.927917
0.774155
0.774155
0.422908
0.658824
0
0.774155
0.626743
0.686179
0.374743
0.350475
0.363806
0.387156
0.34778
0.375801
0.368883
0.362701
0.361301
0.366828
0.362783
0.36431
0.35297
0.386757
0.387949
0.373108
0.359647
0.360349
0.383382
0.365294
0.377293
0.362988
0.37721
0.367734
0.358981
0.349754
0.358597
0.362379
0.383877
0.369223
0.369224
0.368673
0.358567
0.370369
0.364595
0.372652
0.378787
0.371221
0.355195
0.339901
0.369453
0.369147
0.374386
0.391283
0.377225
0.352332
0.377815
0.375447
0.360892
0.372054
0.360195
0.36749
0.355815
0.346907
0.382412
0.367365
0.379277
0.379708
0.36066
0.363639
0.370689
0.358956
0.364593
0.344286
0.374085
0.36848
0.364064
0.35776
0.375765
0.364974
0.375942
0.370863
0.351087
0.372335
0.367386
0.364515
0.351667
0.375393
0.363795
0.370619
0.379497
0.353027
0.354162
0.361233
0.363473
0.371553
0.369
0.369279
0.354556
0.369005
0.341275
0.360744
0.374657
0.364975
0.36177
0.370634
0.365466
0.374788
0.349704
0.358697
0.359027
0.358288
0.358728
0.389107
0.364186
0.382756
0.378486
0.374345
0.357718
0.378991
0.365018
0.366491
0.369779
0.366027
0.366853
0.36456
0.37563
0.377388
0.355969
0.366737
0.357759
0.363395
0.365269
0.352921
0.35928
0.370961
0.383234
0.359648
0.362132
0.370174
0.374384
0.371653
0.360921
0.364436
0.37894
0.359365
0.35678
0.352651
0.365525
0.375672
0.374317
0.357502
0.361873
0.370029
0.362714
0.354928
0.370754
0.378595
0.376054
0.373041
0.36784
0.350657
0.365922
0.343842
0.368802
0.382352
0.375167
0.348492
0.373057
0.357147
0.382749
0.370712
0.355329
0.36855
0.388869
0.360863
0.359032
0.350851
0.375258
0.365401
0.369115
0.365963
0.363988
0.356051
0.365385
0.34609
0.367991
0.365684
0.382876
0.359147
0.360371
0.370825
0.384341
0.367525
0.363716
0.357672
0.365562
0.375696
0.375475
0.365809
0.362914
0.365131
0.345271
0.364422
0.38501
0.35265
0.356105
0.361371
0.350559
0.379715
0.374619
0.362657
0.357845
0.375906
0.378756
0.380238
0.372366
0.369489
0.35581
0.358115
0.351409
0.365044
0.36944
0.357349
0.367827
0.370122
0.379087
0.374065
0.353698
0.353051
0.369993
0.359708
0.359926
0.377436
0.367511
0.355517
0.36664
0.376619
0.359187
0.358299
0.36233
0.376625
0.385829
0.35766
0.387585
0.364857
0.377919
0.365149
0.368533
0.354961
0.353043
0.379698
0.385303
0.367898
0.354853
0.353148
0.36802
0.378969
0.361816
0.350171
0.375096
0.364992
0.364739
0.371563
0.370444
0.379423
0.357153
0.36304
0.388136
0.362125
0.35446
0.365908
0.365599
0.366225
0.364819
0.368386
0.347916
0.360292
0.362318
0.353057
0.358608
0.373618
0.375448
0.34811
0.370627
0.354716
0.378352
0.385227
0.368603
0.361215
0.351734
0.365803
0.362464
0.376687
0.365597
0.377583
0.372554
0.351164
0.386426
0.374603
0.358787
0.349208
0.387637
0.361279
0.348862
0.363734
0.375053
0.370236
0.3667
0.345901
0.365514
0.364489
0.356988
0.367104
0.393938
0.369159
0.376456
0.352384
0.375262
0.37175
0.378614
0.360364
0.354361
0.360252
0.358533
0.389644
0.377831
0.359501
0.368311
0.373469
0.350353
0.367475
0.37211
0.381355
0.345384
0.373586
0.374851
0.373798
0.355386
0.35267
0.369493
0.361531
0.363069
0.353436
0.34875
0.38091
0.369002
0.378292
0.373685
0.368302
0.355258
0.351028
0.374437
0.380988
0.374766
0.352342
0.351238
0.381311
0.374902
0.35883
0.377508
0.353641
0.368868
0.349852
0.341149
0.361189
0.378369
0.368113
0.371291
0.392957
0.364519
0.35091
0.362281
0.368164
0.35291
0.367197
0.370708
0.369021
0.361169
0.360906
0.359653
0.338493
0.367886
0.36823
0.380385
0.359074
0.380492
0.361755
0.386337
0.375343
0.362312
0.382518
0.368769
0.361591
0.387966
0.383673
0.387163
0.367785
0.348568
0.35367
0.352186
0.37439
0.384583
0.365124
0.361963
0.365747
0.366153
0.370541
0.371246
0.388376
0.367483
0.374229
0.373608
0.367563
0.360589
0.343887
0.36163
0.37614
0.403943
0.359936
0.360886
0.341153
0.351613
0.372908
0.383385
0.376691
0.351551
0.35478
0.367902
0.370001
0.354383
0.352277
0.369623
0.362174
0.3584
0.361799
0.384872
0.393666
0.357848
0.367366
0.377073
0.389173
0.363408
0.354446
0.35334
0.353338
0.356583
0.352366
0.374119
0.366782
0.3536
0.366593
0.374597
0.379388
0.360747
0.396268
0.378607
0.363047
0.354176
0.351076
0.361325
0.363145
0.37456
0.377003
0.352191
0.355335
0.370745
0.37879
0.36966
0.344365
0.363578
0.376323
0.37593
0.357614
0.365754
0.36195
0.382877
0.354744
0.345848
0.377018
0.370791
0.374712
0.365615
0.355313
0.361741
0.378919
0.391539
0.373449
0.365361
0.358838
0.369632
0.359354
0.36556
0.37996
0.347296
0.355144
0.334
0.365347
0.393337
0.358828
0.387443
0.387033
0.356122
0.348937
0.379223
0.374082
0.36784
0.365434
0.372427
0.355708
0.356142
0.363062
0.377315
0.368567
0.374822
0.342619
0.365483
0.388208
0.373854
0.348854
0.370482
0.378035
0.343887
0.362706
0.369332
0.362842
0.367911
0.369036
0.360022
0.363762
0.369352
0.366466
0.359131
0.380539
0.366784
0.37938
0.368598
0.363885
0.379009
0.363408
0.365215
0.363679
0.354414
0.361535
0.367565
0.373018
0.375108
0.379807
0.377049
0.356575
0.362906
0.36132
0.375973
0.355097
0.364292
0.353874
0.36586
0.380574
0.371321
0.355126
0.350241
0.368384
0.368506
0.372957
0.363384
0.371935
0.349346
0.355875
0.364412
0.357314
0.380026
0.370247
0.359777
0.364959
0.373525
0.374761
0.379024
0.38229
0.367048
0.368875
0.370029
0.367629
0.377956
0.352745
0.355415
0.357813
0.356927
0.373279
0.373185
0.370139
0.377582
0.353723
0.375519
0.346277
0.374715
0.365794
0.361858
0.368478
0.355529
0.370959
0.38036
0.359073
0.370562
0.386802
0.357012
0.347433
0.362026
0.359171
0.361738
0.376005
0.352768
0.379863
0.370897
0.365246
0.372327
0.357415
0.368989
0.353379
0.359225
0.367856
0.38645
0.385091
0.381382
0.359287
0.34667
0.361856
0.362711
0.364857
0.373305
0.384579
0.354045
0.358269
0.357123
0.381731
0.37434
0.355036
0.370773
0.379786
0.366953
0.358865
0.353014
0.365711
0.377825
0.387237
0.389223
0.372045
0.35691
0.363374
0.366227
0.373988
0.368051
0.361146
0.357382
0.375539
0.379827
0.370058
0.364546
0.398183
0.369137
0.35051
0.351996
0.365354
0.357467
0.354161
0.372975
0.375961
0.3787
0.374796
0.364154
0.366016
0.370641
0.385226
0.370036
0.372021
0.379969
0.364831
0.405347
0.388584
0.3568
0.376116
0.368331
0.375331
0.367946
0.359561
0.359788
0.371955
0.375717
0.374684
0.361211
0.378033
0.342472
0.356114
0.374833
0.381363
0.380023
0.371321
0.361327
0.364208
0.364611
0.362752
0.34911
0.377511
0.359585
0.380671
0.380286
0.3592
0.348873
0.365595
0.365585
0.374887
0.367453
0.362307
0.354239
0.356777
0.370638
0.382364
0.369336
0.365433
0.376155
0.3698
0.373339
0.358959
0.343677
0.371319
0.36342
0.374129
0.364395
0.365399
0.404057
0.384148
0.362477
0.363069
0.361417
0.349309
0.382583
0.358242
0.361155
0.364748
0.359529
0.362429
0.355934
0.392699
0.371233
0.373473
0.357492
0.365254
0.362874
0.366654
0.351292
0.36268
0.371105
0.355525
0.351958
0.363131
0.377115
0.380366
0.371469
0.368505
0.368773
0.356839
0.371975
0.368528
0.356371
0.372019
0.346209
0.367978
0.378125
0.382753
0.370985
0.346885
0.358179
0.358601
0.361904
0.351324
0.350342
0.385938
0.363045
0.375381
0.38596
0.359158
0.366704
0.375928
0.358301
0.381928
0.373203
0.350606
0.368181
0.361556
0.361304
0.364917
0.380889
0.363935
0.346907
0.364546
0.357496
0.367112
0.360145
0.350613
0.362369
0.3583
0.362066
0.379315
0.375068
0.363431
0.373186
0.368206
0.370507
0.362307
0.366724
0.369617
0.36518
0.354175
0.356681
0.375488
0.373785
0.371518
0.362347
0.365837
0.360207
0.373818
0.371835
0.359243
0.365513
0.378496
0.356822
0.363845
0.351694
0.366289
0.368781
0.376015
0.357322
0.358447
0.348325
0.34939
0.37512
0.351363
0.36125
0.363925
0.369552
0.361667
0.356947
0.372762
0.365453
0.348077
0.363031
0.382223
0.370764
0.381412
0.378492
0.364274
0.343829
0.366971
0.36831
0.363808
0.358955
0.374345
0.390895
0.372783
0.368235
0.366954
0.345961
0.358587
0.370491
0.365253
0.361612
0.353963
0.352932
0.355371
0.373916
0.352535
0.3655
0.363817
0.370887
0.36379
0.372336
0.358148
0.359314
0.350042
0.366354
0.372131
0.362044
0.358128
0.372295
0.373968
0.37592
0.358657
0.344617
0.360291
0.361326
0.356936
0.395142
0.367019
0.363754
0.359392
0.356453
0.368265
0.367266
0.378164
0.370065
0.366045
0.365805
0.366973
0.363207
0.358057
0.355285
0.352159
0.367349
0.341275
0.366298
0.365084
0.372839
0.374124
0.369854
0.373544
0.373103
0.36893
0.375206
0.357697
0.358048
0.365411
0.352808
0.358425
0.381232
0.370405
0.360271
0.363897
0.375837
0.365359
0.35612
0.37556
0.369097
0.380339
0.356549
0.360475
0.376611
0.341241
0.350782
0.375311
0.366268
0.336226
0.355934
0.360942
0.357656
0.37933
0.367794
0.359869
0.359587
0.37355
0.379098
0.368041
0.355195
0.357486
0.358053
0.358785
0.35138
0.361215
0.361879
0.371206
0.363867
0.35857
0.37084
0.36612
0.356855
0.379088
0.362431
0.344282
0.371234
0.361146
0.362807
0.363231
0.345241
0.379203
0.363286
0.362951
0.376853
0.362641
0.369522
0.363287
0.374688
0.390567
0.366516
0.37436
0.370792
0.365596
0.345716
0.362802
0.3646
0.382591
0.379413
0.355464
0.353542
0.367975
0.353501
0.354157
0.359601
0.364407
0.356104
0.37145
0.370911
0.345727
0.368094
0.362964
0.368546
0.372804
0.368795
0.377941
0.381199
0.362376
0.357798
0.376922
0.37596
0.344993
0.358771
0.376096
0.365223
0.374784
0.377872
0.366225
0.383158
0.368795
0.369176
0.357618
0.350714
0.358168
0.379364
0.360917
0.39182
0.359437
0.349515
0.357813
0.352545
0.35835
0.349719
0.369328
0.352051
0.369051
0.3707
0.373523
0.378413
0.365581
0.36853
0.364628
0.368345
0.387306
0.359336
0.366974
0.36471
0.359434
0.347981
0.358188
0.372664
0.368278
0.341509
0.379722
0.373819
0.367468
0.379384
0.374391
0.368146
0.370071
0.376088
0.351787
0.343717
0.382296
0.381292
0.37254
0.36592
0.365431
0.352024
0.364435
0.354017
0.367306
0.367685
0.392537
0.364614
0.363947
0.363347
0.359792
0.364467
0.3707
0.369049
0.376809
0.376373
0.364452
0.367116
0.360897
0.371369
0.363838
0.377492
0.365401
0.361141
0.375822
0.36179
0.367507
0.373919
0.377437
0.377259
0.374841
0.346511
0.363324
0.368088
0.37579
0.357326
0.364561
0.338981
0.361946
0.365003
0.367115
0.368435
0.370986
0.372634
0.379481
0.357524
0.361608
0.378964
0.373803
0.368674
0.390122
0.339942
0.347093
0.366113
0.391098
0.358257
0.368604
0.359278
0.367284
0.372408
0.360352
0.369017
0.362958
0.360369
0.356049
0.362065
0.368668
0.361948
0.355951
0.367073
0.36422
0.350618
0.367112
0.368388
0.372199
0.386113
0.378275
0.35773
0.345781
0.35281
0.370531
0.375734
0.374154
0.370829
0.36001
0.367464
0.368871
0.375015
0.361602
0.361636
0.372821
0.357408
0.379728
0.378704
0.359596
0.362362
0.364171
0.372027
0.37146
0.350969
0.366159
0.381417
0.368578
0.383564
0.3676
0.36159
0.38182
0.367147
0.360686
0.367365
0.370365
0.372588