# vtk DataFile Version 2.0
2D Surface
ASCII
DATASET UNSTRUCTURED_GRID
POINTS 1809 float
6.35377e-05 -4.86e-06 0. 
6.354e-05 -4.86031e-06 0. 
6.363e-05 -4.86443e-06 0. 
6.372e-05 -4.86818e-06 0. 
6.381e-05 -4.86588e-06 0. 
6.39e-05 -4.86327e-06 0. 
6.39818e-05 -4.86e-06 0. 
6.39933e-05 -4.86e-06 0. 
6.408e-05 -4.86876e-06 0. 
6.417e-05 -4.87486e-06 0. 
6.426e-05 -4.87527e-06 0. 
6.435e-05 -4.87473e-06 0. 
6.444e-05 -4.86779e-06 0. 
6.453e-05 -4.87879e-06 0. 
6.462e-05 -4.8822e-06 0. 
6.471e-05 -4.88489e-06 0. 
6.48e-05 -4.88305e-06 0. 
6.489e-05 -4.87832e-06 0. 
6.498e-05 -4.87592e-06 0. 
6.507e-05 -4.87984e-06 0. 
6.516e-05 -4.88139e-06 0. 
6.525e-05 -4.88597e-06 0. 
6.534e-05 -4.88251e-06 0. 
6.543e-05 -4.88716e-06 0. 
6.552e-05 -4.88649e-06 0. 
6.561e-05 -4.88417e-06 0. 
6.57e-05 -4.88623e-06 0. 
6.579e-05 -4.89444e-06 0. 
6.588e-05 -4.89762e-06 0. 
6.597e-05 -4.89839e-06 0. 
6.606e-05 -4.89533e-06 0. 
6.615e-05 -4.89624e-06 0. 
6.624e-05 -4.89299e-06 0. 
6.633e-05 -4.89416e-06 0. 
6.642e-05 -4.89238e-06 0. 
6.651e-05 -4.89474e-06 0. 
6.66e-05 -4.90258e-06 0. 
6.669e-05 -4.90314e-06 0. 
6.678e-05 -4.90497e-06 0. 
6.687e-05 -4.90137e-06 0. 
6.696e-05 -4.90117e-06 0. 
6.705e-05 -4.89513e-06 0. 
6.714e-05 -4.89884e-06 0. 
6.723e-05 -4.90265e-06 0. 
6.732e-05 -4.90418e-06 0. 
6.741e-05 -4.90541e-06 0. 
6.75e-05 -4.906e-06 0. 
6.759e-05 -4.90621e-06 0. 
6.768e-05 -4.89693e-06 0. 
6.777e-05 -4.89632e-06 0. 
6.786e-05 -4.90748e-06 0. 
6.795e-05 -4.90765e-06 0. 
6.804e-05 -4.90576e-06 0. 
6.813e-05 -4.90411e-06 0. 
6.822e-05 -4.8983e-06 0. 
6.831e-05 -4.89679e-06 0. 
6.84e-05 -4.90467e-06 0. 
6.849e-05 -4.9045e-06 0. 
6.858e-05 -4.90261e-06 0. 
6.867e-05 -4.89797e-06 0. 
6.876e-05 -4.90724e-06 0. 
6.885e-05 -4.91146e-06 0. 
6.894e-05 -4.90699e-06 0. 
6.903e-05 -4.90675e-06 0. 
6.912e-05 -4.91168e-06 0. 
6.921e-05 -4.91099e-06 0. 
6.93e-05 -4.90306e-06 0. 
6.939e-05 -4.91162e-06 0. 
6.948e-05 -4.91369e-06 0. 
6.957e-05 -4.91199e-06 0. 
6.966e-05 -4.90682e-06 0. 
6.975e-05 -4.91358e-06 0. 
6.984e-05 -4.90936e-06 0. 
6.993e-05 -4.90596e-06 0. 
7.002e-05 -4.90585e-06 0. 
7.011e-05 -4.91282e-06 0. 
7.02e-05 -4.90995e-06 0. 
7.029e-05 -4.90236e-06 0. 
7.038e-05 -4.91168e-06 0. 
7.047e-05 -4.91023e-06 0. 
7.056e-05 -4.91177e-06 0. 
7.065e-05 -4.90486e-06 0. 
7.074e-05 -4.90882e-06 0. 
7.083e-05 -4.91336e-06 0. 
7.092e-05 -4.91386e-06 0. 
7.101e-05 -4.92077e-06 0. 
7.11e-05 -4.91631e-06 0. 
7.119e-05 -4.91669e-06 0. 
7.128e-05 -4.91544e-06 0. 
7.137e-05 -4.90888e-06 0. 
7.146e-05 -4.90488e-06 0. 
7.155e-05 -4.90959e-06 0. 
7.164e-05 -4.91023e-06 0. 
7.173e-05 -4.90942e-06 0. 
7.182e-05 -4.90226e-06 0. 
7.191e-05 -4.90625e-06 0. 
7.2e-05 -4.90746e-06 0. 
7.209e-05 -4.90471e-06 0. 
7.218e-05 -4.9055e-06 0. 
7.227e-05 -4.91415e-06 0. 
7.236e-05 -4.91776e-06 0. 
7.245e-05 -4.92235e-06 0. 
7.254e-05 -4.92221e-06 0. 
7.263e-05 -4.91761e-06 0. 
7.272e-05 -4.90818e-06 0. 
7.281e-05 -4.90795e-06 0. 
7.29e-05 -4.90855e-06 0. 
7.299e-05 -4.91388e-06 0. 
7.308e-05 -4.91613e-06 0. 
7.317e-05 -4.91643e-06 0. 
7.326e-05 -4.91081e-06 0. 
7.335e-05 -4.91e-06 0. 
7.344e-05 -4.91188e-06 0. 
7.353e-05 -4.91053e-06 0. 
7.362e-05 -4.91255e-06 0. 
7.371e-05 -4.91461e-06 0. 
7.38e-05 -4.91639e-06 0. 
7.389e-05 -4.91289e-06 0. 
7.398e-05 -4.90704e-06 0. 
7.407e-05 -4.90513e-06 0. 
7.416e-05 -4.91217e-06 0. 
7.425e-05 -4.913e-06 0. 
7.434e-05 -4.90749e-06 0. 
7.443e-05 -4.9021e-06 0. 
7.452e-05 -4.91045e-06 0. 
7.461e-05 -4.91112e-06 0. 
7.47e-05 -4.91892e-06 0. 
7.479e-05 -4.92132e-06 0. 
7.488e-05 -4.91004e-06 0. 
7.497e-05 -4.91768e-06 0. 
7.506e-05 -4.9203e-06 0. 
7.515e-05 -4.92233e-06 0. 
7.524e-05 -4.91328e-06 0. 
7.533e-05 -4.90642e-06 0. 
7.542e-05 -4.91106e-06 0. 
7.551e-05 -4.90817e-06 0. 
7.56e-05 -4.91182e-06 0. 
7.569e-05 -4.90864e-06 0. 
7.578e-05 -4.91429e-06 0. 
7.587e-05 -4.91479e-06 0. 
7.596e-05 -4.91748e-06 0. 
7.605e-05 -4.92149e-06 0. 
7.614e-05 -4.91795e-06 0. 
7.623e-05 -4.91825e-06 0. 
7.632e-05 -4.91782e-06 0. 
7.641e-05 -4.91211e-06 0. 
7.65e-05 -4.90986e-06 0. 
7.659e-05 -4.90787e-06 0. 
7.668e-05 -4.9109e-06 0. 
7.677e-05 -4.91358e-06 0. 
7.686e-05 -4.90708e-06 0. 
7.695e-05 -4.90796e-06 0. 
7.704e-05 -4.9078e-06 0. 
7.713e-05 -4.91737e-06 0. 
7.722e-05 -4.91765e-06 0. 
7.731e-05 -4.91208e-06 0. 
7.74e-05 -4.91497e-06 0. 
7.749e-05 -4.90909e-06 0. 
7.758e-05 -4.90169e-06 0. 
7.767e-05 -4.9026e-06 0. 
7.776e-05 -4.90893e-06 0. 
7.785e-05 -4.90736e-06 0. 
7.794e-05 -4.90331e-06 0. 
7.803e-05 -4.91183e-06 0. 
7.812e-05 -4.91329e-06 0. 
7.821e-05 -4.91363e-06 0. 
7.83e-05 -4.90753e-06 0. 
7.839e-05 -4.90742e-06 0. 
7.848e-05 -4.91069e-06 0. 
7.857e-05 -4.91094e-06 0. 
7.866e-05 -4.90934e-06 0. 
7.875e-05 -4.90895e-06 0. 
7.884e-05 -4.91156e-06 0. 
7.893e-05 -4.91296e-06 0. 
7.902e-05 -4.9052e-06 0. 
7.911e-05 -4.91358e-06 0. 
7.92e-05 -4.91811e-06 0. 
7.929e-05 -4.92105e-06 0. 
7.938e-05 -4.91118e-06 0. 
7.947e-05 -4.90638e-06 0. 
7.956e-05 -4.90217e-06 0. 
7.965e-05 -4.91062e-06 0. 
7.974e-05 -4.91194e-06 0. 
7.983e-05 -4.90795e-06 0. 
7.992e-05 -4.90854e-06 0. 
8.001e-05 -4.8998e-06 0. 
8.01e-05 -4.90215e-06 0. 
8.019e-05 -4.90003e-06 0. 
8.028e-05 -4.90329e-06 0. 
8.037e-05 -4.90574e-06 0. 
8.046e-05 -4.9037e-06 0. 
8.055e-05 -4.90212e-06 0. 
8.064e-05 -4.90235e-06 0. 
8.073e-05 -4.90878e-06 0. 
8.082e-05 -4.91044e-06 0. 
8.091e-05 -4.90644e-06 0. 
8.1e-05 -4.90016e-06 0. 
8.109e-05 -4.90522e-06 0. 
8.118e-05 -4.90807e-06 0. 
8.127e-05 -4.90905e-06 0. 
8.136e-05 -4.90477e-06 0. 
8.145e-05 -4.90374e-06 0. 
8.154e-05 -4.90375e-06 0. 
8.163e-05 -4.89996e-06 0. 
8.172e-05 -4.89625e-06 0. 
8.181e-05 -4.90181e-06 0. 
8.19e-05 -4.90459e-06 0. 
8.199e-05 -4.90105e-06 0. 
8.208e-05 -4.9041e-06 0. 
8.217e-05 -4.90558e-06 0. 
8.226e-05 -4.8999e-06 0. 
8.235e-05 -4.89507e-06 0. 
8.244e-05 -4.89467e-06 0. 
8.253e-05 -4.8962e-06 0. 
8.262e-05 -4.89586e-06 0. 
8.271e-05 -4.89811e-06 0. 
8.28e-05 -4.89602e-06 0. 
8.289e-05 -4.89853e-06 0. 
8.298e-05 -4.9056e-06 0. 
8.307e-05 -4.90982e-06 0. 
8.316e-05 -4.90495e-06 0. 
8.325e-05 -4.90261e-06 0. 
8.334e-05 -4.9031e-06 0. 
8.343e-05 -4.89853e-06 0. 
8.352e-05 -4.89515e-06 0. 
8.361e-05 -4.88841e-06 0. 
8.37e-05 -4.89042e-06 0. 
8.379e-05 -4.88926e-06 0. 
8.388e-05 -4.88763e-06 0. 
8.397e-05 -4.89089e-06 0. 
8.406e-05 -4.89327e-06 0. 
8.415e-05 -4.8912e-06 0. 
8.424e-05 -4.88629e-06 0. 
8.433e-05 -4.88966e-06 0. 
8.442e-05 -4.88972e-06 0. 
8.451e-05 -4.88464e-06 0. 
8.46e-05 -4.88273e-06 0. 
8.469e-05 -4.88361e-06 0. 
8.478e-05 -4.88327e-06 0. 
8.487e-05 -4.88061e-06 0. 
8.496e-05 -4.87908e-06 0. 
8.505e-05 -4.8774e-06 0. 
8.514e-05 -4.87979e-06 0. 
8.523e-05 -4.88007e-06 0. 
8.532e-05 -4.87703e-06 0. 
8.541e-05 -4.87778e-06 0. 
8.55e-05 -4.87294e-06 0. 
8.559e-05 -4.87026e-06 0. 
8.568e-05 -4.87068e-06 0. 
8.577e-05 -4.87122e-06 0. 
8.586e-05 -4.87014e-06 0. 
8.595e-05 -4.87478e-06 0. 
8.604e-05 -4.86805e-06 0. 
8.613e-05 -4.87006e-06 0. 
8.622e-05 -4.86161e-06 0. 
8.62987e-05 -4.86e-06 0. 
6.03237e-05 -4.77e-06 0. 
6.039e-05 -4.84863e-06 0. 
6.048e-05 -4.84717e-06 0. 
6.057e-05 -4.83674e-06 0. 
6.066e-05 -4.82643e-06 0. 
6.075e-05 -4.81252e-06 0. 
6.084e-05 -4.78863e-06 0. 
6.093e-05 -4.77127e-06 0. 
6.09342e-05 -4.77e-06 0. 
6.12483e-05 -4.77e-06 0. 
6.129e-05 -4.77341e-06 0. 
6.138e-05 -4.77506e-06 0. 
6.147e-05 -4.77684e-06 0. 
6.156e-05 -4.77877e-06 0. 
6.165e-05 -4.79052e-06 0. 
6.174e-05 -4.79139e-06 0. 
6.183e-05 -4.79176e-06 0. 
6.192e-05 -4.79465e-06 0. 
6.201e-05 -4.79756e-06 0. 
6.21e-05 -4.80348e-06 0. 
6.219e-05 -4.81188e-06 0. 
6.228e-05 -4.81474e-06 0. 
6.237e-05 -4.81395e-06 0. 
6.246e-05 -4.81878e-06 0. 
6.255e-05 -4.8213e-06 0. 
6.264e-05 -4.82615e-06 0. 
6.273e-05 -4.83024e-06 0. 
6.282e-05 -4.84296e-06 0. 
6.291e-05 -4.84989e-06 0. 
6.3e-05 -4.84865e-06 0. 
6.309e-05 -4.8518e-06 0. 
6.318e-05 -4.85046e-06 0. 
6.327e-05 -4.85095e-06 0. 
6.336e-05 -4.85296e-06 0. 
6.345e-05 -4.84837e-06 0. 
6.399e-05 -4.85967e-06 0. 
8.631e-05 -4.85977e-06 0. 
8.64e-05 -4.85544e-06 0. 
8.649e-05 -4.85534e-06 0. 
8.658e-05 -4.84827e-06 0. 
8.667e-05 -4.84764e-06 0. 
8.676e-05 -4.8457e-06 0. 
8.685e-05 -4.84284e-06 0. 
8.694e-05 -4.84484e-06 0. 
8.703e-05 -4.84246e-06 0. 
8.712e-05 -4.83344e-06 0. 
8.721e-05 -4.83309e-06 0. 
8.73e-05 -4.83304e-06 0. 
8.739e-05 -4.82974e-06 0. 
8.748e-05 -4.82192e-06 0. 
8.757e-05 -4.81917e-06 0. 
8.766e-05 -4.81733e-06 0. 
8.775e-05 -4.81564e-06 0. 
8.784e-05 -4.81258e-06 0. 
8.793e-05 -4.81031e-06 0. 
8.802e-05 -4.81523e-06 0. 
8.811e-05 -4.81274e-06 0. 
8.82e-05 -4.80321e-06 0. 
8.829e-05 -4.80298e-06 0. 
8.838e-05 -4.79258e-06 0. 
8.847e-05 -4.78572e-06 0. 
8.856e-05 -4.77968e-06 0. 
8.865e-05 -4.77134e-06 0. 
8.86661e-05 -4.77e-06 0. 
8.90731e-05 -4.77e-06 0. 
8.91e-05 -4.77891e-06 0. 
8.919e-05 -4.79685e-06 0. 
8.928e-05 -4.80007e-06 0. 
8.937e-05 -4.81351e-06 0. 
8.946e-05 -4.82101e-06 0. 
8.955e-05 -4.82964e-06 0. 
8.964e-05 -4.79944e-06 0. 
8.96694e-05 -4.77e-06 0. 
6.02933e-05 -4.68e-06 0. 
6.03e-05 -4.69988e-06 0. 
6.102e-05 -4.74403e-06 0. 
6.111e-05 -4.7594e-06 0. 
6.12e-05 -4.76605e-06 0. 
8.874e-05 -4.76387e-06 0. 
8.883e-05 -4.76085e-06 0. 
8.892e-05 -4.75312e-06 0. 
8.901e-05 -4.74913e-06 0. 
8.97134e-05 -4.68e-06 0. 
6.02885e-05 -4.59e-06 0. 
8.97224e-05 -4.59e-06 0. 
6.02878e-05 -4.5e-06 0. 
8.97217e-05 -4.5e-06 0. 
6.02918e-05 -4.41e-06 0. 
8.9728e-05 -4.41e-06 0. 
6.0289e-05 -4.32e-06 0. 
8.97197e-05 -4.32e-06 0. 
6.02881e-05 -4.23e-06 0. 
8.9722e-05 -4.23e-06 0. 
6.02952e-05 -4.14e-06 0. 
8.97178e-05 -4.14e-06 0. 
6.02834e-05 -4.05e-06 0. 
8.9718e-05 -4.05e-06 0. 
6.02872e-05 -3.96e-06 0. 
8.97147e-05 -3.96e-06 0. 
6.02853e-05 -3.87e-06 0. 
8.9724e-05 -3.87e-06 0. 
6.02915e-05 -3.78e-06 0. 
8.97256e-05 -3.78e-06 0. 
6.02882e-05 -3.69e-06 0. 
8.97143e-05 -3.69e-06 0. 
6.02805e-05 -3.6e-06 0. 
8.97142e-05 -3.6e-06 0. 
6.02815e-05 -3.51e-06 0. 
8.97112e-05 -3.51e-06 0. 
6.02807e-05 -3.42e-06 0. 
8.97176e-05 -3.42e-06 0. 
6.02876e-05 -3.33e-06 0. 
8.97287e-05 -3.33e-06 0. 
6.02864e-05 -3.24e-06 0. 
8.973e-05 -3.32094e-06 0. 
[...]
POINT_DATA 1809
SCALARS Coverage0 float 1
LOOKUP_TABLE default
0.324791
0.324791
0.316297
0.320169
0.321218
0.335715
0.343427
0.343427
0.328217
0.336443
0.330225
0.323615
0.310949
0.333924
0.325631
0.322892
0.33507
0.323171
0.325375
0.360482
0.325754
0.346489
0.350367
0.336779
0.344224
0.342428
0.359352
0.337454
0.353424
0.343466
0.314363
0.334825
0.334061
0.337295
0.344624
0.341681
0.341625
0.359685
0.344021
0.342519
0.303753
0.341529
0.376459
0.360141
0.366613
0.345168
0.369137
0.345108
0.344707
0.35639
0.331965
0.335241
0.349624
0.356569
0.364155
0.366266
0.337549
0.344746
0.363791
0.362064
0.343106
0.352818
0.349427
0.372407
0.383905
0.374878
0.33017
0.347804
0.349463
0.376579
0.375483
0.358882
0.349854
0.352218
0.340605
0.312779
0.326222
0.329457
0.364866
0.362276
0.346447
0.325455
0.346655
0.35062
0.340645
0.340023
0.362094
0.367435
0.36399
0.364767
0.354735
0.349091
0.328936
0.331399
0.373729
0.364111
0.369929
0.345146
0.362726
0.353075
0.348151
0.337011
0.356503
0.358212
0.35124
0.375132
0.37425
0.346955
0.370552
0.369835
0.356205
0.341032
0.346627
0.338231
0.360225
0.363968
0.365336
0.367799
0.359197
0.355126
0.340367
0.333835
0.334306
0.361851
0.371705
0.38053
0.367541
0.386141
0.356314
0.370662
0.345669
0.358791
0.368931
0.364122
0.340136
0.356317
0.361616
0.355446
0.386025
0.345444
0.341438
0.344181
0.33565
0.356881
0.339359
0.345753
0.350051
0.366775
0.371407
0.360282
0.365102
0.346411
0.34448
0.342717
0.349765
0.369091
0.380451
0.361198
0.348154
0.360182
0.377825
0.368302
0.354864
0.343786
0.354562
0.356777
0.365334
0.349475
0.365219
0.381637
0.364732
0.360537
0.374961
0.374427
0.355794
0.355857
0.358235
0.330478
0.344432
0.372984
0.358556
0.341865
0.363947
0.350892
0.344319
0.350901
0.340645
0.362356
0.373279
0.361187
0.338706
0.347621
0.345238
0.356335
0.35418
0.337844
0.339139
0.359664
0.332494
0.340615
0.341388
0.318568
0.350276
0.356575
0.366526
0.372128
0.350282
0.354975
0.3657
0.352173
0.346353
0.347197
0.339864
0.364546
0.357687
0.337418
0.348801
0.3502
0.359111
0.339206
0.337408
0.354482
0.323694
0.346431
0.33619
0.335775
0.328984
0.332476
0.369167
0.34455
0.346877
0.34488
0.349496
0.340224
0.329426
0.341639
0.340975
0.352642
0.362442
0.358186
0.342954
0.367003
0.328477
0.342921
0.349936
0.332929
0.337424
0.342636
0.32366
0.324931
0.326426
0.338597
0.329062
0.321634
0.33695
0.325014
0.545104
0.352441
0.241343
0.241631
0.274384
0.256167
0.232865
0.250272
0.250272
0.310554
0.310554
0.316766
0.295581
0.297987
0.296211
0.301931
0.318312
0.316423
0.306105
0.313326
0.286319
0.332787
0.327119
0.30343
0.312185
0.31622
0.326832
0.314106
0.318261
0.341233
0.320999
0.336033
0.307586
0.282104
0.304902
0.343427
0.325014
0.325565
0.342644
0.307921
0.324332
0.326369
0.308549
0.320573
0.338282
0.330347
0.284752
0.30859
0.329616
0.33957
0.317559
0.332801
0.31353
0.33171
0.300932
0.283502
0.295868
0.284812
0.304834
0.310663
0.280555
0.292063
0.301372
0.301372
0.251963
0.251963
0.2635
0.283235
0.244297
0.238689
0.266302
0.419053
0.419053
0.743951
0.743951
0.293294
0.308536
0.295895
0.267112
0.284659
0.311804
0.278909
0.760323
0.878012
0.823651
0
0.812412
0.501567
0.801349
0.890905
1
1
0.988328
0.877808
0.999769
0.920561
0.996672
0.931196
0.900115
0.998761
0.862054
0.952901
0.999717
0.939221
0
0.993944
0.826896
0.998453
0.884514
0
0.842714
1
0.824865
1
0.824865
0.885227
0.730927
0.996151
0.845872
1
0.749509
0.87537
0.680196
0.99636
0.747879
0.713185
0.900696
0.900696
0.85867
0.900696
0
1
1
0.669389
0.959574
0.761533
0.991581
0.991581
0.85951
1
1
0.85951
0
0.997302
0
0.83871
0.853546
0.853546
0.83871
0.728522
0
0.988917
0.967437
0.967437
0.976747
0.677563
0.967437
0.969812
0.831718
0
1
1
1
1
1
0
0.944535
0.994888
0
0
0.767417
0
0
0.649019
1
0.649019
0.734686
0.974836
0.914406
0.864185
0
1
1
0.985307
1
1
0.801087
0.772557
0.870667
0.848212
0
0.820831
0.820831
0.849716
0
0
0.768406
0
0.761704
0.761704
0
0.729647
0.729647
0.761704
0.845117
0
0.813044
0.813044
0.984655
0.795287
0.795287
0.999544
0.704051
0.704051
0.984655
0.795287
0.795077
0.704051
0.591917
0.53792
0.371035
0.385143
0.358403
0.355295
0.362836
0.35325
0.355081
0.369079
0.364712
0.354852
0.377738
0.364648
0.365864
0.381235
0.369459
0.363866
0.352416
0.385881
0.365625
0.3579
0.355599
0.34223
0.374949
0.369967
0.373827
0.379849
0.369758
0.371132
0.358389
0.367749
0.372813
0.361398
0.362716
0.345045
0.358816
0.369332
0.369228
0.370695
0.354723
0.352114
0.357332
0.366788
0.373077
0.361064
0.385265
0.378719
0.365144
0.373669
0.363053
0.375526
0.363592
0.349904
0.366805
0.354354
0.354638
0.356887
0.378749
0.3668
0.367895
0.355997
0.390281
0.361706
0.374456
0.373535
0.35311
0.369922
0.382257
0.384605
0.351267
0.367976
0.356543
0.371013
0.355853
0.372805
0.371686
0.377468
0.352237
0.372499
0.386119
0.370921
0.362517
0.360605
0.359319
0.359643
0.362108
0.347887
0.357979
0.380246
0.373341
0.373473
0.345814
0.362165
0.363703
0.374211
0.363134
0.353194
0.365415
0.362189
0.367848
0.35386
0.382827
0.358406
0.340246
0.365057
0.369156
0.372754
0.36693
0.377834
0.359959
0.366703
0.388801
0.356866
0.362098
0.368679
0.369502
0.367508
0.356386
0.367189
0.352799
0.354896
0.366614
0.378622
0.368938
0.367217
0.373475
0.360522
0.362307
0.373561
0.386303
0.373161
0.363306
0.388773
0.35256
0.348296
0.369489
0.390555
0.383205
0.344014
0.365289
0.374483
0.371447
0.367568
0.361432
0.373215
0.377278
0.366308
0.349081
0.34109
0.363274
0.361622
0.369913
0.372292
0.364191
0.359728
0.362344
0.37182
0.365979
0.350422
0.384029
0.37337
0.359187
0.360224
0.369219
0.354438
0.38891
0.381537
0.357775
0.381297
0.375824
0.370797
0.382013
0.344689
0.353141
0.359276
0.364108
0.370558
0.348398
0.367836
0.37117
0.364037
0.371294
0.372564
0.371959
0.380694
0.376026
0.363145
0.367138
0.358187
0.35387
0.335356
0.345618
0.362403
0.355468
0.371141
0.370198
0.366888
0.35906
0.368386
0.366061
0.364878
0.378327
0.387753
0.374227
0.373594
0.345263
0.369527
0.352149
0.37744
0.367422
0.358066
0.367192
0.377056
0.37894
0.362056
0.352529
0.344354
0.370774
0.352922
0.356683
0.382762
0.368368
0.359079
0.362239
0.367734
0.38872
0.373539
0.390013
0.378347
0.341631
0.352548
0.367872
0.372231
0.358486
0.364836
0.380096
0.37862
0.351267
0.369437
0.363048
0.364117
0.359632
0.348643
0.371539
0.363451
0.358828
0.371748
0.369246
0.376618
0.36104
0.374748
0.362712
0.3653
0.368501
0.377336
0.384201
0.364784
0.351264
0.356236
0.365164
0.374989
0.373922
0.365654
0.361426
0.363382
0.346089
0.367068
0.365797
0.357846
0.364779
0.362437
0.353066
0.358596
0.36569
0.362269
0.383888
0.385009
0.37013
0.367697
0.366618
0.37486
0.361431
0.3652
0.358848
0.375034
0.369749
0.353303
0.363907
0.351632
0.360363
0.358872
0.378417
0.381064
0.35302
0.358106
0.345688
0.367307
0.382377
0.36155
0.377553
0.36407
0.357833
0.364835
0.373691
0.359593
0.360649
0.360042
0.376489
0.368276
0.348233
0.366346
0.368655
0.349953
0.378327
0.390465
0.356679
0.361151
0.38358
0.361915
0.368356
0.363458
0.368286
0.355518
0.34039
0.378535
0.384472
0.375121
0.34472
0.360264
0.359286
0.364782
0.369433
0.385111
0.363935
0.367646
0.367422
0.356652
0.364611
0.370449
0.380777
0.368051
0.363396
0.379527
0.361387
0.365395
0.358583
0.348321
0.351495
0.370393
0.358292
0.340027
0.359528
0.357972
0.372046
0.379258
0.384892
0.373774
0.359199
0.382005
0.371862
0.357857
0.371697
0.3779
0.371307
0.345926
0.345143
0.36914
0.373543
0.36377
0.366224
0.362043
0.366617
0.378543
0.38106
0.371265
0.369752
0.361961
0.355823
0.367286
0.36383
0.358984
0.366861
0.380734
0.353852
0.36942
0.37032
0.365881
0.385376
0.371388
0.372491
0.372757
0.375758
0.364687
0.363342
0.34733
0.374795
0.373467
0.361688
0.365565
0.361655
0.353743
0.384229
0.361009
0.361714
0.361123
0.359788
0.381257
0.353676
0.357616
0.367279
0.363544
0.362501
0.342326
0.358445
0.356235
0.378951
0.378118
0.368357
0.364796
0.365028
0.358589
0.363627
0.37289
0.370821
0.37072
0.37859
0.350196
0.372317
0.363589
0.352604
0.367691
0.370953
0.373659
0.37581
0.352251
0.387112
0.379402
0.375387
0.361802
0.374959
0.350415
0.36102
0.37124
0.352806
0.355491
0.386547
0.381328
0.379677
0.357293
0.345702
0.375308
0.398634
0.367535
0.349116
0.354614
0.350678
0.379957
0.364652
0.387281
0.353662
0.364449
0.361189
0.365452
0.369718
0.375373
0.389989
0.373338
0.367667
0.366292
0.361245
0.367586
0.375137
0.373696
0.350217
0.34983
0.3743
0.392221
0.366857
0.350538
0.361432
0.355154
0.360133
0.363602
0.363414
0.373242
0.358806
0.364518
0.360713
0.365573
0.354801
0.37241
0.368569
0.354577
0.378551
0.355402
0.362091
0.360536
0.372493
0.37377
0.354934
0.364658
0.375301
0.37487
0.342986
0.355533
0.367701
0.381285
0.359347
0.36165
0.373308
0.354447
0.357414
0.354317
0.368606
0.361324
0.380238
0.36399
0.36027
0.376029
0.352385
0.359937
0.381224
0.379499
0.37037
0.360869
0.361019
0.367023
0.363771
0.378502
0.370821
0.3712
0.38081
0.343147
0.353201
0.362088
0.37609
0.364873
0.351995
0.370822
0.3828
0.381672
0.359582
0.366737
0.370644
0.354315
0.351834
0.376069
0.363982
0.365679
0.372701
0.365516
0.367625
0.382935
0.366017
0.36045
0.365524
0.367104
0.366406
0.391738
0.355239
0.380048
0.381315
0.361561
0.373646
0.355475
0.368259
0.359583
0.349408
0.370315
0.361158
0.347056
0.363991
0.380338
0.375382
0.354994
0.372653
0.383802
0.354758
0.367628
0.367985
0.360549
0.35437
0.361888
0.373978
0.378345
0.362952
0.372604
0.372426
0.369902
0.385543
0.373531
0.372043
0.37361
0.352055
0.36188
0.369395
0.366008
0.364719
0.383265
0.350578
0.365877
0.355352
0.35784
0.374714
0.367987
0.386393
0.35133
0.369442
0.372879
0.35838
0.36514
0.369019
0.363489
0.349096
0.380374
0.375334
0.365289
0.359388
0.358637
0.358462
0.361934
0.361824
0.36227
0.372975
0.351932
0.352647
0.371689
0.373901
0.359878
0.361172
0.359256
0.361842
0.3523
0.372823
0.373651
0.367556
0.365018
0.354582
0.374914
0.353323
0.384248
0.356936
0.353488
0.380605
0.36667
0.340567
0.360336
0.363458
0.376549
0.368596
0.358763
0.373824
0.359935
0.35059
0.359634
0.357887
0.366768
0.37421
0.393057
0.371938
0.36845
0.352998
0.382868
0.377314
0.366018
0.360134
0.379922
0.408125
0.375259
0.377425
0.381448
0.343016
0.361096
0.366432
0.359901
0.381533
0.380699
0.387224
0.360812
0.361425
0.35553
0.349685
0.359858
0.380816
0.366101
0.363887
0.377943
0.371433
0.36773
0.365397
0.365116
0.367372
0.35612
0.383529
0.374854
0.370788
0.3492
0.361377
0.383089
0.3681
0.35793
0.338492
0.367721
0.363722
0.36413
0.359291
0.38483
0.365753
0.374489
0.343668
0.354476
0.371695
0.398216
0.360575
0.380483
0.370923
0.358956
0.355639
0.380525
0.372115
0.375955
0.37151
0.367218
0.373104
0.349606
0.34768
0.367304
0.372218
0.387141
0.360679
0.357587
0.359638
0.354078
0.362967
0.393177
0.378493
0.361595
0.366224
0.389582
0.356735
0.344685
0.362925
0.362792
0.364091
0.367983
0.364213
0.36946
0.361064
0.384115
0.373508
0.364721
0.381731
0.369261
0.352571
0.358439
0.378113
0.364414
0.347926
0.378094
0.362411
0.363006
0.371121
0.365268
0.375221
0.363957
0.376643
0.360578
0.373414
0.372611
0.335594
0.361401
0.387276
0.378147
0.374855
0.374915
0.375375
0.375307
0.359036
0.367147
0.353595
0.36652
0.358413
0.359713
0.363958
0.363287
0.352968
0.354458
0.364652
0.372146
0.368327
0.374967
0.375147
0.373391
0.340743
0.352391
0.351751
0.371323
0.376956
0.372098
0.37771
0.387396
0.370181
0.358995
0.370813
0.364186
0.363981
0.375742
0.360851
0.360062
0.373251
0.383502
0.363151
0.360444
0.358056
0.373197
0.327463
0.35451
0.367439
0.366899
0.382496
0.373231
0.368689
0.370862
0.354824
0.352564
0.378154
0.365424
0.369463
0.373289
0.364667
0.368274
0.371547
0.371293
0.36719
0.367855
0.362468
0.375456
0.37969
0.365772
0.382093
0.3741
0.364262
0.357173
0.385789
0.377544
0.355232
0.342108
0.359898
0.368807
0.368248
0.37115
0.355392
0.369662
0.364711
0.376669
0.381419
0.383312
0.363116
0.333583
0.34823
0.369955
0.367977
0.350202
0.372622
0.370362
0.354942
0.368552
0.389014
0.369873
0.360586
0.367534
0.367249
0.366605
0.372014
0.365693
0.365737
0.369379
0.374594
0.368332
0.379867
0.374868
0.363539
0.369803
0.355303
0.354741
0.348159
0.346418
0.384312
0.381903
0.366102
0.369633
0.363829
0.338753
0.35393
0.38081
0.364226
0.360814
0.379866
0.378564
0.36879
0.356317
0.357154
0.36746
0.353803
0.3898
0.375859
0.370655
0.351077
0.352755
0.370654
0.357538
0.375215
0.380727
0.364755
0.359426
0.357075
0.380873
0.354676
0.377487
0.363226
0.350998
0.376999
0.372326
0.363592
0.380328
0.37061
0.382366
0.371848
0.363703
0.354148
0.355895
0.36208
0.344283
0.368628
0.377632
0.373664
0.369062
0.37465
0.371642
0.378938
0.345261
0.371034
0.38777
0.347112
0.374479
0.384158
0.364776
0.360624
0.36559
0.341428
0.369783
0.380184
0.364056
0.355898
0.378906
0.364411
0.36507
0.366252
0.371666
0.361596
0.37049
0.372287
0.372065
0.371963
0.386409
0.359089
0.356592
0.339402
0.365408
0.367713
0.360797
0.376535
0.363503
0.361858
0.362607
0.376974
0.369347
0.36512
0.377039
0.378404
0.376785
0.342823
0.357946
0.379578
0.377314
0.357753
0.366069
0.374869
0.358593
0.3582
0.351816
0.349345
0.379387
0.377571
0.37359
0.35627
0.365415
0.357871
0.367293
0.390176
0.362044
0.359091
0.360326
0.373923
0.360581
0.372846
0.397988
0.367054
0.354453
0.374239
0.373427
0.378665
0.338438
0.376413
0.358791
0.368458
0.377065
0.374595
0.368174
0.358861
0.36182
0.345218
0.368505
0.367476
0.378977
0.366198
0.367315
0.390768
0.366227
0.364304
0.368464
0.348744
0.360514
0.364043
0.37777
0.366994
0.361244
0.360016
0.374976
0.369168
0.371763
0.371894
0.351517
0.365392
0.361082
0.34828
0.381076
0.372306
0.37167
0.37599
0.376133
0.380694
0.381383
0.368391
0.361369
0.376959
0.35408
0.390703
0.347563
0.354143
0.369421
0.35824
0.359322
0.379219
0.36681
0.374774
0.367064
0.35841
0.349929
0.353979
0.358387
0.363356
0.384236
0.378057
0.368346
0.374158
0.367498
0.351267
0.371847
0.3827
0.352873
0.360161
0.366951
0.370959
0.357721
0.367306
0.35693
0.376937
0.37827
0.360828
0.341882
0.358318
0.367001
0.381036
0.364845
0.349935
0.35794
0.35821
0.361318
0.362235
0.389658
0.367565
0.367894
0.37888
0.371558
0.353618
0.353714
0.354155
0.366364
0.360562
0.373222
0.36972
0.375507
0.372429
0.363973
0.377905
0.366764
0.363471
0.378376
0.360429
0.358047
0.359378
0.37264
0.388412
0.361055
0.358524
0.363372
0.359977
0.385035
0.375898
0.379094
0.374306
0.357911
0.360225
0.369399
0.373062
0.343823
0.357064
0.386302
0.38056
0.374988
0.360532
0.358586
0.356879
0.363096
0.357217
0.370019
0.380491
0.365442
0.382216
0.350357
0.354218
0.360594
0.369101
0.363789
0.359593
0.355925
0.365891
0.364338
0.377392
0.36423
0.367021
0.351416
0.36869
0.389283
0.382072
0.377614
0.36806
0.35337
0.362966
0.362482
0.373937
0.360229
0.366739
0.366535
0.357379
0.355847
0.382232
0.35207
0.355638
0.342798
0.345562
0.396461
0.377302
0.361945
0.363943
0.352983
0.357049
0.364885
0.354322
0.379735
0.375118
0.372662
0.349729
0.373137
0.37097
0.360203
0.366363
0.355458
0.363147
0.380266
0.357465
0.364166
0.369658
0.359181
0.374241
0.352237
0.357584
0.381597
0.37743
0.374052
0.364925
0.372524
0.370214
0.359356
0.365198
0.378651
0.371193
0.362959
0.336644
0.354425
0.380251
0.377321
0.369673
0.367188
0.377815
0.376708
0.358532
0.347522
0.361365
0.361702
0.357497
0.352356
0.353597
0.363303
0.362409
0.369482
0.378477
0.373884
0.374746
0.361406
0.360207
0.36426
0.356467
0.3618
0.373148
0.359062
0.372794
0.369505
0.352847
0.369825
0.357693
0.362268
0.361544
0.361663
0.375238
0.373026
0.369258
0.37195
0.360557
0.362445
0.381864
0.362668
0.359536
0.373646
0.364954
0.35797
0.361998
0.38485
0.374597
0.370013
0.364021
0.374211
0.387078
0.366118
0.358519
0.369852
0.373654
0.357271
0.366313
0.364348
0.370841
0.368707
0.380656
0.36793
0.35393
0.359049
0.37702
0.371744
0.392997
0.377532
0.36709
0.341761
0.370747
0.359094
0.359411
0.354339
0.351237
0.359446
0.386015
0.38071
0.366739
0.347571
0.360013
0.370726
0.356048
0.380456
0.37028
0.370038
0.364972
0.391428
0.370001
0.355602
0.355578
0.350358
0.362534
0.348548
0.370726
0.367512
0.377553
0.389732
0.378236
0.355368
0.341003
0.357583
0.397277
0.373097
0.354264
0.362474
0.361903
0.374049
0.376812
0.368537
0.371035
SCALARS Coverage1 float 1
LOOKUP_TABLE default
0.175151
0.175151
0.189356
0.181601
0.180926
0.20035
0.193558
0.193558
0.201411
0.207867
0.185796
0.185338
0.18206
0.19717
0.212505
0.212261
0.186892
0.18919
0.175152
0.201873
0.214453
0.199522
0.192416
0.231199
0.205973
0.183622
0.196808
0.205566
0.189843
0.180529
0.179647
0.186301
0.211761
0.219841
0.185442
0.19455
0.211668
0.185206
0.186269
0.208203
0.207622
0.195311
0.177381
0.19088
0.192538
0.205283
0.207809
0.19456
0.186837
0.198556
0.186916
0.188625
0.198032
0.217932
0.212257
0.194754
0.200929
0.193708
0.186596
0.188129
0.17478
0.174797
0.202525
0.212773
0.177164
0.176026
0.183191
0.191745
0.179579
0.180206
0.183079
0.186391
0.181952
0.193508
0.190038
0.203789
0.204253
0.202572
0.195949
0.182482
0.198032
0.184836
0.207418
0.199094
0.184809
0.190752
0.183394
0.175753
0.173293
0.17266
0.174211
0.18965
0.184183
0.199084
0.18898
0.188536
0.192946
0.183258
0.203789
0.190112
0.202891
0.203891
0.202114
0.188216
0.215224
0.218462
0.191753
0.184921
0.179369
0.188353
0.184374
0.198873
0.206963
0.192676
0.205253
0.195623
0.210947
0.222252
0.212278
0.216856
0.201107
0.186314
0.198095
0.199332
0.191014
0.201872
0.19436
0.175069
0.193038
0.213153
0.192834
0.194108
0.214394
0.199533
0.209076
0.206982
0.21471
0.22123
0.200208
0.204041
0.202521
0.185074
0.213137
0.201637
0.182069
0.197021
0.190738
0.213856
0.194321
0.175789
0.191709
0.188038
0.198862
0.213713
0.217309
0.202564
0.205266
0.194303
0.185538
0.17765
0.180059
0.176036
0.196573
0.170772
0.178412
0.192555
0.199887
0.215806
0.194417
0.187887
0.199358
0.199883
0.194844
0.19103
0.204198
0.196585
0.192043
0.216953
0.198517
0.196139
0.195335
0.185755
0.186462
0.189919
0.178677
0.169924
0.181719
0.186616
0.193197
0.182522
0.181489
0.197145
0.195695
0.182797
0.188421
0.21742
0.192151
0.196554
0.184166
0.185099
0.211048
0.188759
0.191784
0.199749
0.189501
0.196363
0.195136
0.185135
0.189281
0.194132
0.172945
0.189862
0.201595
0.197442
0.189315
0.181486
0.215191
0.195181
0.180287
0.192015
0.189633
0.197045
0.182096
0.209731
0.180036
0.172991
0.204778
0.221075
0.224799
0.172904
0.176408
0.190828
0.195072
0.198645
0.1855
0.186464
0.186277
0.184657
0.180329
0.164472
0.168509
0.171651
0.180179
0.177367
0.182361
0.196614
0.206639
0.184975
0.194123
0.196109
0.183076
0.178621
0.186071
0.198136
0.175653
0.17259
0.252849
0.201078
0.189257
0.164028
0.146323
0.176544
0.16707
0.189301
0.189301
0.162701
0.162701
0.145965
0.176241
0.203945
0.200789
0.1742
0.18795
0.184475
0.173884
0.182273
0.206368
0.190799
0.201162
0.202135
0.190023
0.204655
0.205641
0.195997
0.178255
0.206351
0.200126
0.171248
0.17471
0.200902
0.209222
0.193558
0.17259
0.197814
0.204304
0.188395
0.198855
0.199593
0.188953
0.183046
0.201363
0.198263
0.195396
0.199105
0.18544
0.174309
0.189033
0.203161
0.208752
0.208806
0.185982
0.187895
0.16628
0.182041
0.177633
0.175471
0.189002
0.174917
0.176946
0.176946
0.201406
0.201406
0.20185
0.175885
0.156252
0.165842
0.190964
0.210678
0.210678
0.430589
0.430589
0.189377
0.176886
0.209433
0.202008
0.165206
0.165214
0.175411
0.393196
0
9.02588
0
0
0.0190504
0
0.059685
0
1
198.013
0.0537313
0
0.0910869
0
0
0
0
0
0.0428682
649.328
0
1
0
0
0
0.0438169
0
0.0581506
0
3.46128
1
3.46128
3.93431
0
129.008
0
1
0
3.79646
0.269301
0
0.317093
0.411554
1.38178
1.38178
0.922399
1.38178
0
1
1
13.7492
0.0501454
0.356631
23.872
23.872
0.0729002
1
1
0.0729002
0
0.130313
0
0
0.0681601
0.0681601
0
0.338238
1
74.6867
0
0
36.8541
2.0766
0
0.0734936
3.27598
0
1
1
0
1
1
0
5.6268
56.8887
1
1
0.488747
0
0
0.293189
1
0.293189
0.472075
18.8191
0.0484507
0.0929823
1
1
1
0.0740623
1
0
0
0
0
0
1
0.0804019
0.0804019
2.70378
0
0
0.0619312
0
124.259
124.259
1
0.066189
0.066189
124.259
2.60295
0
2.0805
2.0805
0
0.0745277
0.0745277
0.0255194
0.327894
0.327894
0
0.0745277
107.347
0.327894
0.231376
0.24514
0.195525
0.182829
0.197864
0.205455
0.196319
0.19589
0.198151
0.192578
0.188139
0.195029
0.204063
0.191119
0.19568
0.192219
0.184353
0.200622
0.220123
0.188745
0.19266
0.190027
0.19871
0.19702
0.190822
0.177598
0.194507
0.20494
0.21095
0.203668
0.191336
0.189413
0.188407
0.19783
0.195809
0.211283