# vtk DataFile Version 2.0
2D Surface
ASCII
DATASET UNSTRUCTURED_GRID
POINTS 3689 float
7.13725e-05 -5.535e-05 0. 
7.146e-05 -5.53539e-05 0. 
7.155e-05 -5.53553e-05 0. 
7.164e-05 -5.53512e-05 0. 
7.16555e-05 -5.535e-05 0. 
7.20298e-05 -5.535e-05 0. 
7.209e-05 -5.53545e-05 0. 
7.218e-05 -5.53593e-05 0. 
7.227e-05 -5.53601e-05 0. 
7.236e-05 -5.53582e-05 0. 
7.245e-05 -5.5353e-05 0. 
7.254e-05 -5.53615e-05 0. 
7.263e-05 -5.53554e-05 0. 
7.272e-05 -5.53576e-05 0. 
7.281e-05 -5.53582e-05 0. 
7.29e-05 -5.53611e-05 0. 
7.299e-05 -5.53598e-05 0. 
7.308e-05 -5.53599e-05 0. 
7.317e-05 -5.53613e-05 0. 
7.326e-05 -5.53687e-05 0. 
7.335e-05 -5.53697e-05 0. 
7.344e-05 -5.53708e-05 0. 
7.353e-05 -5.53707e-05 0. 
7.362e-05 -5.5365e-05 0. 
7.371e-05 -5.53614e-05 0. 
7.38e-05 -5.53647e-05 0. 
7.389e-05 -5.53606e-05 0. 
7.398e-05 -5.53563e-05 0. 
7.407e-05 -5.53606e-05 0. 
7.416e-05 -5.53659e-05 0. 
7.425e-05 -5.53694e-05 0. 
7.434e-05 -5.53735e-05 0. 
7.443e-05 -5.53747e-05 0. 
7.452e-05 -5.5376e-05 0. 
7.461e-05 -5.53782e-05 0. 
7.47e-05 -5.53771e-05 0. 
7.479e-05 -5.53721e-05 0. 
7.488e-05 -5.53748e-05 0. 
7.497e-05 -5.53812e-05 0. 
7.506e-05 -5.53857e-05 0. 
7.515e-05 -5.53804e-05 0. 
7.524e-05 -5.53817e-05 0. 
7.533e-05 -5.53823e-05 0. 
7.542e-05 -5.53781e-05 0. 
7.551e-05 -5.53719e-05 0. 
7.56e-05 -5.5375e-05 0. 
7.569e-05 -5.53728e-05 0. 
7.578e-05 -5.53835e-05 0. 
7.587e-05 -5.53847e-05 0. 
7.596e-05 -5.53837e-05 0. 
7.605e-05 -5.53834e-05 0. 
7.614e-05 -5.53828e-05 0. 
7.623e-05 -5.53881e-05 0. 
7.632e-05 -5.53894e-05 0. 
7.641e-05 -5.53861e-05 0. 
7.65e-05 -5.53856e-05 0. 
7.659e-05 -5.53815e-05 0. 
7.668e-05 -5.53726e-05 0. 
7.677e-05 -5.53774e-05 0. 
7.686e-05 -5.53632e-05 0. 
7.695e-05 -5.537e-05 0. 
7.704e-05 -5.53682e-05 0. 
7.713e-05 -5.53656e-05 0. 
7.722e-05 -5.53709e-05 0. 
7.731e-05 -5.53607e-05 0. 
7.74e-05 -5.53584e-05 0. 
7.749e-05 -5.53634e-05 0. 
7.758e-05 -5.53627e-05 0. 
7.767e-05 -5.53615e-05 0. 
7.776e-05 -5.53623e-05 0. 
7.785e-05 -5.53635e-05 0. 
7.794e-05 -5.53613e-05 0. 
7.803e-05 -5.5362e-05 0. 
7.812e-05 -5.53636e-05 0. 
7.821e-05 -5.53642e-05 0. 
7.83e-05 -5.5365e-05 0. 
7.839e-05 -5.5365e-05 0. 
7.848e-05 -5.53623e-05 0. 
7.857e-05 -5.5361e-05 0. 
7.866e-05 -5.53614e-05 0. 
7.875e-05 -5.53523e-05 0. 
7.884e-05 -5.53538e-05 0. 
7.893e-05 -5.53515e-05 0. 
7.89794e-05 -5.535e-05 0. 
6.78234e-05 -5.526e-05 0. 
6.786e-05 -5.52623e-05 0. 
6.795e-05 -5.52687e-05 0. 
6.804e-05 -5.52814e-05 0. 
6.813e-05 -5.52851e-05 0. 
6.822e-05 -5.5293e-05 0. 
6.831e-05 -5.52946e-05 0. 
6.84e-05 -5.52924e-05 0. 
6.849e-05 -5.52871e-05 0. 
6.858e-05 -5.52895e-05 0. 
6.867e-05 -5.53001e-05 0. 
6.876e-05 -5.53073e-05 0. 
6.885e-05 -5.53106e-05 0. 
6.894e-05 -5.53084e-05 0. 
6.903e-05 -5.53233e-05 0. 
6.912e-05 -5.53223e-05 0. 
6.921e-05 -5.53207e-05 0. 
6.93e-05 -5.53184e-05 0. 
6.939e-05 -5.53151e-05 0. 
6.948e-05 -5.53203e-05 0. 
6.957e-05 -5.53232e-05 0. 
6.966e-05 -5.53184e-05 0. 
6.975e-05 -5.53187e-05 0. 
6.984e-05 -5.53212e-05 0. 
6.993e-05 -5.53199e-05 0. 
7.002e-05 -5.53289e-05 0. 
7.011e-05 -5.53334e-05 0. 
7.02e-05 -5.53308e-05 0. 
7.029e-05 -5.53288e-05 0. 
7.038e-05 -5.53363e-05 0. 
7.047e-05 -5.53394e-05 0. 
7.056e-05 -5.53373e-05 0. 
7.065e-05 -5.53424e-05 0. 
7.074e-05 -5.53452e-05 0. 
7.083e-05 -5.53433e-05 0. 
7.092e-05 -5.5347e-05 0. 
7.101e-05 -5.53396e-05 0. 
7.11e-05 -5.5342e-05 0. 
7.119e-05 -5.53441e-05 0. 
7.128e-05 -5.53467e-05 0. 
7.137e-05 -5.53499e-05 0. 
7.173e-05 -5.53443e-05 0. 
7.182e-05 -5.53419e-05 0. 
7.191e-05 -5.53496e-05 0. 
7.2e-05 -5.53478e-05 0. 
7.902e-05 -5.53488e-05 0. 
7.911e-05 -5.53447e-05 0. 
7.92e-05 -5.53403e-05 0. 
7.929e-05 -5.53392e-05 0. 
7.938e-05 -5.53264e-05 0. 
7.947e-05 -5.53287e-05 0. 
7.956e-05 -5.53326e-05 0. 
7.965e-05 -5.53307e-05 0. 
7.974e-05 -5.5328e-05 0. 
7.983e-05 -5.53255e-05 0. 
7.992e-05 -5.53228e-05 0. 
8.001e-05 -5.53137e-05 0. 
8.01e-05 -5.53155e-05 0. 
8.019e-05 -5.53132e-05 0. 
8.028e-05 -5.53066e-05 0. 
8.037e-05 -5.53054e-05 0. 
8.046e-05 -5.52933e-05 0. 
8.055e-05 -5.52927e-05 0. 
8.064e-05 -5.529e-05 0. 
8.073e-05 -5.52868e-05 0. 
8.082e-05 -5.52806e-05 0. 
8.091e-05 -5.52803e-05 0. 
8.1e-05 -5.52762e-05 0. 
8.109e-05 -5.52775e-05 0. 
8.118e-05 -5.52716e-05 0. 
8.127e-05 -5.52713e-05 0. 
8.13245e-05 -5.526e-05 0. 
6.61945e-05 -5.517e-05 0. 
6.624e-05 -5.5171e-05 0. 
6.633e-05 -5.51757e-05 0. 
6.642e-05 -5.51842e-05 0. 
6.651e-05 -5.51928e-05 0. 
6.66e-05 -5.51976e-05 0. 
6.669e-05 -5.52043e-05 0. 
6.678e-05 -5.52067e-05 0. 
6.687e-05 -5.52034e-05 0. 
6.696e-05 -5.52068e-05 0. 
6.705e-05 -5.52076e-05 0. 
6.714e-05 -5.52071e-05 0. 
6.723e-05 -5.52146e-05 0. 
6.732e-05 -5.52211e-05 0. 
6.741e-05 -5.52297e-05 0. 
6.75e-05 -5.5234e-05 0. 
6.759e-05 -5.5241e-05 0. 
6.768e-05 -5.5246e-05 0. 
6.777e-05 -5.52567e-05 0. 
8.136e-05 -5.52527e-05 0. 
8.145e-05 -5.52564e-05 0. 
8.154e-05 -5.52548e-05 0. 
8.163e-05 -5.52554e-05 0. 
8.172e-05 -5.526e-05 0. 
8.181e-05 -5.52565e-05 0. 
8.19e-05 -5.52476e-05 0. 
8.199e-05 -5.52414e-05 0. 
8.208e-05 -5.52383e-05 0. 
8.217e-05 -5.52426e-05 0. 
8.226e-05 -5.52401e-05 0. 
8.235e-05 -5.52383e-05 0. 
8.244e-05 -5.52348e-05 0. 
8.253e-05 -5.52317e-05 0. 
8.262e-05 -5.52272e-05 0. 
8.271e-05 -5.52319e-05 0. 
8.28e-05 -5.52248e-05 0. 
8.289e-05 -5.52189e-05 0. 
8.298e-05 -5.52086e-05 0. 
8.307e-05 -5.52082e-05 0. 
8.316e-05 -5.52093e-05 0. 
8.325e-05 -5.52075e-05 0. 
8.334e-05 -5.52061e-05 0. 
8.343e-05 -5.51974e-05 0. 
8.352e-05 -5.52056e-05 0. 
8.361e-05 -5.52045e-05 0. 
8.37e-05 -5.51996e-05 0. 
8.379e-05 -5.51955e-05 0. 
8.388e-05 -5.51923e-05 0. 
8.397e-05 -5.51924e-05 0. 
8.406e-05 -5.51905e-05 0. 
8.415e-05 -5.51908e-05 0. 
8.424e-05 -5.51875e-05 0. 
8.433e-05 -5.51819e-05 0. 
8.442e-05 -5.51737e-05 0. 
8.4461e-05 -5.517e-05 0. 
6.46121e-05 -5.508e-05 0. 
6.462e-05 -5.50805e-05 0. 
6.471e-05 -5.51001e-05 0. 
6.48e-05 -5.51049e-05 0. 
6.489e-05 -5.51072e-05 0. 
6.498e-05 -5.51039e-05 0. 
6.507e-05 -5.5108e-05 0. 
6.516e-05 -5.51079e-05 0. 
6.525e-05 -5.51092e-05 0. 
6.534e-05 -5.51173e-05 0. 
6.543e-05 -5.51256e-05 0. 
6.552e-05 -5.51264e-05 0. 
6.561e-05 -5.51309e-05 0. 
6.57e-05 -5.51375e-05 0. 
6.579e-05 -5.51398e-05 0. 
6.588e-05 -5.51452e-05 0. 
6.597e-05 -5.51559e-05 0. 
6.606e-05 -5.51635e-05 0. 
6.615e-05 -5.5169e-05 0. 
8.451e-05 -5.51655e-05 0. 
8.46e-05 -5.51606e-05 0. 
8.469e-05 -5.51596e-05 0. 
8.478e-05 -5.51555e-05 0. 
8.487e-05 -5.5149e-05 0. 
8.496e-05 -5.51396e-05 0. 
8.505e-05 -5.51344e-05 0. 
8.514e-05 -5.51284e-05 0. 
8.523e-05 -5.51244e-05 0. 
8.532e-05 -5.51164e-05 0. 
8.541e-05 -5.51024e-05 0. 
8.55e-05 -5.50923e-05 0. 
8.559e-05 -5.50886e-05 0. 
8.568e-05 -5.50814e-05 0. 
8.56946e-05 -5.508e-05 0. 
6.35961e-05 -5.499e-05 0. 
6.363e-05 -5.49944e-05 0. 
6.372e-05 -5.50073e-05 0. 
6.381e-05 -5.502e-05 0. 
6.39e-05 -5.50283e-05 0. 
6.399e-05 -5.50377e-05 0. 
6.408e-05 -5.50474e-05 0. 
6.417e-05 -5.5055e-05 0. 
6.426e-05 -5.50649e-05 0. 
6.435e-05 -5.50727e-05 0. 
6.444e-05 -5.50766e-05 0. 
6.453e-05 -5.50749e-05 0. 
8.577e-05 -5.50726e-05 0. 
8.586e-05 -5.50639e-05 0. 
8.595e-05 -5.50558e-05 0. 
8.604e-05 -5.5046e-05 0. 
8.613e-05 -5.50378e-05 0. 
8.622e-05 -5.50301e-05 0. 
8.631e-05 -5.50209e-05 0. 
8.64e-05 -5.50116e-05 0. 
8.649e-05 -5.50028e-05 0. 
8.658e-05 -5.4991e-05 0. 
8.65888e-05 -5.499e-05 0. 
6.29721e-05 -5.49e-05 0. 
6.3e-05 -5.49063e-05 0. 
6.309e-05 -5.49222e-05 0. 
6.318e-05 -5.49331e-05 0. 
6.327e-05 -5.49471e-05 0. 
6.336e-05 -5.49639e-05 0. 
6.345e-05 -5.49746e-05 0. 
6.354e-05 -5.49826e-05 0. 
8.667e-05 -5.49805e-05 0. 
8.676e-05 -5.49719e-05 0. 
8.685e-05 -5.49598e-05 0. 
8.694e-05 -5.49428e-05 0. 
8.703e-05 -5.49269e-05 0. 
8.712e-05 -5.49094e-05 0. 
8.71606e-05 -5.49e-05 0. 
6.26041e-05 -5.481e-05 0. 
6.264e-05 -5.48203e-05 0. 
6.273e-05 -5.48406e-05 0. 
6.282e-05 -5.48593e-05 0. 
6.291e-05 -5.4886e-05 0. 
8.721e-05 -5.48886e-05 0. 
8.73e-05 -5.48646e-05 0. 
8.739e-05 -5.48423e-05 0. 
8.748e-05 -5.48155e-05 0. 
8.75017e-05 -5.481e-05 0. 
6.2328e-05 -5.472e-05 0. 
6.237e-05 -5.4738e-05 0. 
6.246e-05 -5.4769e-05 0. 
6.255e-05 -5.47945e-05 0. 
8.757e-05 -5.47926e-05 0. 
8.766e-05 -5.47498e-05 0. 
8.775e-05 -5.47286e-05 0. 
8.7759e-05 -5.472e-05 0. 
6.21633e-05 -5.463e-05 0. 
6.219e-05 -5.46567e-05 0. 
6.228e-05 -5.46994e-05 0. 
8.784e-05 -5.46428e-05 0. 
8.78528e-05 -5.463e-05 0. 
6.20909e-05 -5.454e-05 0. 
6.21e-05 -5.45513e-05 0. 
8.78972e-05 -5.454e-05 0. 
6.20676e-05 -5.445e-05 0. 
8.79016e-05 -5.445e-05 0. 
6.20658e-05 -5.436e-05 0. 
8.79052e-05 -5.436e-05 0. 
6.20664e-05 -5.427e-05 0. 
8.79055e-05 -5.427e-05 0. 
6.2067e-05 -5.418e-05 0. 
8.79026e-05 -5.418e-05 0. 
6.20634e-05 -5.409e-05 0. 
8.79031e-05 -5.409e-05 0. 
6.20615e-05 -5.4e-05 0. 
8.79066e-05 -5.4e-05 0. 
6.20628e-05 -5.391e-05 0. 
8.79073e-05 -5.391e-05 0. 
6.20634e-05 -5.382e-05 0. 
8.79065e-05 -5.382e-05 0. 
6.20655e-05 -5.373e-05 0. 
8.79051e-05 -5.373e-05 0. 
6.20682e-05 -5.364e-05 0. 
8.79085e-05 -5.364e-05 0. 
6.20655e-05 -5.355e-05 0. 
8.79102e-05 -5.355e-05 0. 
6.20655e-05 -5.346e-05 0. 
8.79103e-05 -5.346e-05 0. 
6.20642e-05 -5.337e-05 0. 
8.79105e-05 -5.337e-05 0. 
6.20654e-05 -5.328e-05 0. 
8.79134e-05 -5.328e-05 0. 
6.20659e-05 -5.319e-05 0. 
8.79145e-05 -5.319e-05 0. 
6.20684e-05 -5.31e-05 0. 
8.79161e-05 -5.31e-05 0. 
6.20675e-05 -5.301e-05 0. 
8.79123e-05 -5.301e-05 0. 
6.2062e-05 -5.292e-05 0. 
8.79167e-05 -5.292e-05 0. 
6.20612e-05 -5.283e-05 0. 
8.7916e-05 -5.283e-05 0. 
6.20644e-05 -5.274e-05 0. 
8.79168e-05 -5.274e-05 0. 
6.20627e-05 -5.265e-05 0. 
8.79183e-05 -5.265e-05 0. 
6.2061e-05 -5.256e-05 0. 
8.79213e-05 -5.256e-05 0. 
6.20607e-05 -5.247e-05 0. 
8.79228e-05 -5.247e-05 0. 
6.20603e-05 -5.238e-05 0. 
8.79234e-05 -5.238e-05 0. 
6.20611e-05 -5.229e-05 0. 
8.79225e-05 -5.229e-05 0. 
6.20589e-05 -5.22e-05 0. 
8.79224e-05 -5.22e-05 0. 
6.206e-05 -5.211e-05 0. 
8.79226e-05 -5.211e-05 0. 
6.20485e-05 -5.202e-05 0. 
8.79225e-05 -5.202e-05 0. 
6.20411e-05 -5.193e-05 0. 
8.79226e-05 -5.193e-05 0. 
6.204e-05 -5.184e-05 0. 
8.79223e-05 -5.184e-05 0. 
6.20427e-05 -5.175e-05 0. 
[...]
POINT_DATA 3689
SCALARS Coverage0 float 1
LOOKUP_TABLE default
0.16144
0.148794
0.138757
0.14867
0.14867
0.15107
0.187823
0.191066
0.172163
0.177858
0.168757
0.17018
0.179676
0.163551
0.169429
0.170995
0.165289
0.161406
0.169722
0.183979
0.169881
0.153941
0.147771
0.15431
0.15888
0.156822
0.151356
0.148045
0.170596
0.170442
0.169159
0.183835
0.190012
0.158939
0.140788
0.149461
0.151673
0.157434
0.165249
0.160747
0.151667
0.169919
0.169212
0.175902
0.165009
0.174302
0.178993
0.157724
0.15683
0.162016
0.159891
0.167477
0.170295
0.159865
0.14473
0.148098
0.147184
0.153156
0.179115
0.145828
0.150594
0.164786
0.192174
0.160551
0.174525
0.176205
0.174827
0.177698
0.151613
0.1534
0.149885
0.164972
0.168749
0.156722
0.164398
0.157342
0.165786
0.165801
0.193477
0.172844
0.135576
0.170532
0.186649
0.162494
0.15125
0.15125
0.189164
0.153553
0.162475
0.153855
0.181931
0.188724
0.209897
0.170871
0.151115
0.171413
0.165978
0.159066
0.15932
0.160034
0.180546
0.166332
0.18338
0.175814
0.153298
0.152841
0.162356
0.148995
0.150185
0.132044
0.158596
0.182037
0.167269
0.192791
0.209016
0.16923
0.160881
0.175378
0.187938
0.185178
0.161135
0.148624
0.165178
0.173717
0.16144
0.181238
0.17387
0.155261
0.15107
0.162494
0.151658
0.172077
0.154847
0.146313
0.149055
0.167993
0.185942
0.170933
0.183101
0.171833
0.159275
0.152403
0.173225
0.188416
0.185396
0.149134
0.167267
0.1747
0.174838
0.176136
0.142674
0.14882
0.146005
0.160098
0.187811
0.161494
0.1545
0.150882
0.158817
0.15956
0.161776
0.195984
0.186395
0.168981
0.144532
0.141482
0.153998
0.166002
0.161907
0.151933
0.154
0.157083
0.147848
0.17452
0.15004
0.161494
0.14934
0.159845
0.153678
0.161909
0.159228
0.154861
0.161292
0.15656
0.163209
0.178361
0.167402
0.160199
0.167559
0.177291
0.172959
0.162873
0.170106
0.166117
0.161769
0.160304
0.170024
0.148942
0.156863
0.159258
0.137046
0.14803
0.16117
0.168478
0.174643
0.173021
0.156699
0.146181
0.183424
0.181246
0.181246
0.158764
0.158764
0.155182
0.159307
0.152601
0.146268
0.181643
0.170109
0.171302
0.150983
0.172554
0.180216
0.131776
0.138502
0.156714
0.175658
0.170972
0.158763
0.1545
0.184343
0.148785
0.14986
0.161446
0.153448
0.163613
0.162904
0.177664
0.154637
0.150645
0.129108
0.133675
0.141027
0.176083
0.176083
0.166952
0.166952
0.138406
0.147747
0.142497
0.149451
0.186512
0.176179
0.144751
0.144248
0.153987
0.161751
0.156617
0.151125
0.169379
0.16116
0.133131
0.150132
0.158407
0.16009
0.162518
0.193498
0.193498
0.187564
0.187564
0.156858
0.159092
0.185401
0.17628
0.177522
0.181324
0.183589
0.16742
0.180076
0.176957
0.184921
0.189502
0.189502
0.190272
0.190272
0.187049
0.189688
0.202358
0.175387
0.174522
0.188431
0.19158
0.19158
0.266573
0.266573
0.199713
0.196118
0.225882
0.227459
0.233392
0.233392
0.258364
0.258364
0.267725
0.322646
0.322646
0.418188
0.418188
0.596769
0.698793
0.827519
0.947101
0.918081
0.978993
0.981182
0.768593
0.990685
0.749409
0.904016
0.666447
0.814676
0.896531
0.907592
0.671548
0.884107
0.310785
0.8698
0.977041
0.91302
0.93187
0.939575
0.971323
0.81861
0.97555
0.837304
0.94622
0.738841
1
0.92466
0.986906
0.991954
0.915921
0.878574
0.835529
0.684277
0.987632
0.560623
0.970172
0.796159
0.921885
0.932046
0.913931
0.850159
0.901519
0.540377
0.926486
0.233768
0.886339
0.948041
0.905922
0.995712
0.794969
0.984618
0.696319
0.766496
0.885942
0.902769
0.982366
0.950413
0.866915
0.739354
0.931755
0.937866
0.981043
0.962127
0.802904
0.985263
0.997663
0.9892
0.902212
0.904329
0.922167
0.923329
0.891186
0.964301
0.756369
0.925032
0.860872
0.979407
0.979407
0.946412
0.979407
0.987618
0.938628
0.887809
0.81238
0.850273
0.850273
0.956831
0.968708
0.87224
0.938797
0.821592
0.959737
0.944051
0.890978
0.951731
0.999554
1
0.940903
0.940903
0.630533
0.940903
0.757224
0.658536
0.796088
0.727715
0.888727
0.94711
0.756867
0.964225
0.990491
0.849091
0.958287
0.93798
0.768766
0.936893
0.829897
0.777429
0.905
0.0976739
0.804534
0.867344
0.884712
0.801687
0.585645
0.987388
0.933379
0.995258
0.929321
0.968682
0.970984
0.922488
0
0.895195
0.88338
0.937498
0.857419
1
0.675014
0.98144
0.887381
0.824867
1
0.996004
0.97531
0.921048
0.913079
0.858012
0.952235
0.93968
0.957157
0.938198
0.816773
0.889489
0.716898
0.851184
0.358552
0.919
0.803163
0.615027
0.886867
0.0894754
0.998834
0.468234
0.971516
0.541909
0.764128
0.755151
0.8567
0.999814
0.875321
0.942877
0.867903
0.868542
0.939713
1
0.991696
0.734084
1
0.97012
0.725256
0.852696
0.851501
0.941459
0.307373
0.951753
0
0.92104
0.873458
0.983999
0.881064
0.569085
1
0.960268
0.985129
0.9109
0.77864
0.864262
0.885829
0.636707
0.636707
0.815423
0.636707
0.774295
0.934978
0.782284
0.782284
0.880608
0.782284
0.944187
0.826671
0.884945
0.884945
0.785383
0.815581
0.668094
0.931227
0.931227
0.79489
0.759806
0.931227
0.75025
0.814138
0.725677
0.936587
0
0.970803
0.879624
0.938758
0.93167
0.905705
0
0.983423
0.998192
0.987323
0.990846
0.772482
0.955165
0.810365
0.797623
0.687729
0.856533
1
0.562058
0.724266
1
0.652118
0.57121
0.932384
0.602427
1
0.638894
0.638894
0.996492
0.855262
0.703307
0.886158
0.740664
0.859406
0.887777
1
0
1
0.801926
1
0.78418
1
0.819463
0
1
0
0
0
1
0
0
0.834985
0
0.852558
0.891711
0.787562
0.983734
1
1
0.821472
1
1
0
1
0
0
0.906975
0.729214
0.99772
0.840284
0
0.935069
0.834201
0
0.879304
1
0.793082
0.887065
0.793082
0.860363
0.917109
1
0.976298
0
0
0.952815
0.801439
0.801439
0.810484
0
1
1
0
1
0
1
0
0
1
1
0.824615
1
0.884909
1
0
0.884909
1
0
0
0
0.621894
0.579614
0.579614
0
1
0
1
0.702682
1
0.707988
0.707988
0.445294
1
0.978206
0
0
0.95961
0.958676
0.958676
0.947032
0.653278
0.916445
0.916445
1
0
1
0.976835
0
0
0.918813
0.918813
0.890768
0.890768
0.839544
0
1
1
1
0
0
1
0.660297
0
0
0.816293
1
0
0.831069
0
0
0.832564
0.83377
0
0.740076
1
0.666295
1
0.706791
0
0.747981
0.747981
0.846909
0.816728
0.867235
0.759139
0.949706
0
0
0
0
1
1
1
0.875362
0
0
0
0
0
0
1
1
1
1
0
0.784394
0.784394
0
0.761368
1
0.956323
0
1
0.915442
0.915442
0.959513
0.959513
0
0.915442
0.959513
0.82146
0
0.831235
0
0.999724
0
0
1
0.95335
0
0.824462
0
0.865587
1
1
0.818233
0.884941
1
0.867635
0
0
1
0.715458
0.938582
0.807354
0.807354
0.938582
0.83913
1
0.810671
0.83913
1
0
1
0.777931
0
0
0
0
0.879352
0
1
1
0.830479
0.570717
0.827409
0
0
0.850327
0
1
1
0.850327
0.794582
1
0.876293
1
0
0.813552
0.754448
0.842632
0
0.754448
0.842632
0.738489
1
1
1
1
1
1
1
1
1
1
1
1
1
1
1
0.202452
1
1
1
0
1
1
1
1
1
0.99488
1
0.99488
1
0
0
0
0
1
1
1
1
1
1
0
0
0
1
0
1
1
0.956752
0
0
0.846564
0.846564
0
0
1
1
0
0.748024
0.761013
0.761013
0
0
0.525406
0.761013
0
0
0
1
1
0.215868
1
0
0.921409
0
1
0.733974
0
0
0.826941
0.900082
0.900082
0
0.900082
0.907229
0
0
0
0
0
0
0
0
0
0.322458
0
0
0
0
1
0.971708
0.971708
0
0
0.774475
0.971708
0.907661
0.907661
1
1
1
0
1
0.938703
0.938703
0
1
1
0.938703
0.711184
0.711184
0
0.711184
0.896882
1
0.896882
0.729073
0
0.71268
0
1
1
1
1
0.923169
1
1
0
0.965384
0.684928
0
0
0.965384
0.980197
0
0
1
0
0
0
1
0.908072
0
1
0.908072
1
1
1
0
1
0
0
1
1
1
1
1
0.864685
0.864685
0
0.864685
0.800936
0
0.820849
0
0
0.820849
0
0
1
1
0.787228
0.787228
0
1
1
0.787228
0
0
1
1
0.909153
0.909153
0
0.906493
0.909153
1
1
0.81277
0
0.930709
0.930709
0.846191
0.905447
0.846191
1
0
0
1
1
0
0
0
0.961282
0.961282
1
1
0
0.961282
1
1
0
1
1
0
0
1
1
0
1
0.80075
0
0
1
1
1
1
0
1
1
1
1
1
0.791669
1
0.791669
0
0
1
0
1
0
1
0
1
0
0
0.874889
0.874889
0
0
0.874889
1
0
0
0
1
0
0
1
0
0
0
0
1
0
0.955445
0.955445
1
0.665967
0.665967
0.955445
1
0.678479
0
1
1
1
1
1
1
1
1
1
1
1
1
1
0.993896
0.993896
0.450906
1
1
1
1
0.993896
0.450906
0.813006
1
1
0.803513
1
0.803513
0.859026
1
1
0
0
0
1
0
0
1
1
0
0.703838
0.703838
1
1
1
0.783043
0.703838
0.98509
0.98509
0
1
0.511092
0.511092
0.98509
0.806702
1
1
1
1
1
1
1
1
1
0
0
1
0
1
0
0
1
0
0.767466
0
0.750017
0.750017
0
0.707832
0
0
0.950883
0
0.950883
0
0
1
1
0.797701
1
1
1
0
0.797701
0
1
0
0.840407
1
1
0
0
1
1
0
1
1
1
1
0
1
0
0.839869
1
0
0.839869
0.804217
0
1
1
1
1
1
1
0
0
1
1
0.208948
0.208948
0
1
0.912565
0.912565
0.208948
1
1
0.898901
0.737978
0.737978
0
0
0
1
0
1
1
0
0
0
1
1
1
0
0.805996
0.805996
0
0
0.945029
0
0
0
0
0.899313
0.899313
1
0
0
1
1
1
0.712288
0.899313
0
1
1
0.712288
0
0.512168
1
0.512168
1
0
0
1
0
1
0
1
0
0
0
0.718154
0
0
0
0
0
0
0
0
0
0
0
1
0.998811
0.998811
0
1
0
0.998811
0
1
1
1
0
1
0
0.974837
0.974837
1
0.799005
0.799005
0.974837
1
0
1
0.751483
0.99388
0.99388
0
0
0.93981
0.93981
0.99388
0.992118
0
0.845269
0.93981
0
1
1
1
1
0.845269
0
0
0.994446
0.994446
0
0
0
0
0.994446
0.988456
1
1
1
1
1
0.988456
1
1
1
1
1
1
1
1
1
0
1
0
1
1
0
0
1
1
1
0
0
0
0.966835
0.966835
0
0
0
0.966835
0.907294
0
0
0
0
1
0.907294
1
1
1
1
0
1
0.822551
0.822551
1
0.737236
0.737236
0.822551
1
1
1
1
1
1
1
0.914384
0.914384
0
0.858769
0.914384
1
1
0
1
1
0.858769
1
0
1
1
0.394448
0.394448
1
1
0.90705
0.394448
1
0.808133
0
0.724685
0
0
0.724685
1
0
0
0
1
1
0
1
0
1
0.820185
0.820185
0
0.978161
0.978161
0.934002
1
1
1
0
0.978161
0.934002
1
1
0
1
1
0
1
0
0
0
0
0
0.965002
0.965002
0
0
1
0
0.965002
0
1
0
0
0
1
0
0
0
1
1
1
0
1
0.945775
0.945775
1
0.745158
0.745158
0.945775
0.860737
0.860737
0
1
0.745158
0.78836
0.860737
0.902698
0.865665
0.741132
0.78836
0.865665
0
0
1
0
0
0
1
0
0
1
1
0.908145
0.908145
0.892625
1
0.945745
1
1
0.945745
0
0
0
1
0
1
0
0
0
1
0
1
0
1
1
0
1
0
0
0
1
0
1
1
0
0
0
1
0
0.710746
0
0.8787
0.8787
0
0
1
0
0
0
0.974679
1
1
0
1
1
1
0
1
1
0.997143
0.997143
0
0
0
0.997143
0.98481
0.656396
0
0.656396
1
1
0
0
0
0.984021
0.984021
0
1
0.890204
0.984021
0.68066
0.877364
0.890204
0.68066
0
0.863176
1
1
1
0
1
0
0.863176
1
0.663129
0.663129
1
0.663129
0.749885
1
0.887199
1
0.887199
1
1
1
1
1
1
1
1
1
0
1
1
1
1
1
1
0
1
0
1
0
0
0
0
1
0
1
1
1
1
0
0
0
0
0.972184
0.972184
0
1
0
0
0.0924909
0.0924909
0.972184
1
1
1
0
1
1
1
1
0
0.92528
0.92528
0.886761
1
0.800522
0.92528
0.886761
1
1
0
0
1
0
0
1
1
1
1
0
1
0
1
1
1
1
0
1
0.986785
0.986785
1
0
0.950956
0.950956
0.986785
0
1
1
0.860701
0.860701
0.950956
0
0
1
0.867254
0.867254
0.993392
0.993392
0.857147
0.867254
0.993392
0
0
0
0.876977
1
1
0
0
0
0.876977
0.620788
0
0.620788
1
1
0
1
0
1
1
1
0.972534
0.972534
1
0
1
1
1
1
0.972534
1
0.638371
0.793003
0.638371
0
0
0
0
0.793003
1
0
0
0.977751
0.977751
1
1
1
0
0
0.977751
0.798781
1
1
0.856429
0.856429
1
1
1
0
0
1
0.976489
0.976489
0
1
1
0.976489
0
0
1
0.957081
0.957081
0
1
0.772473
0.957081
0
0
0
1
1
1
0
1
0
1
0.861808
0.861808
0.869807
1
1
0
0.861808
1
1
1
0
0
1
1
0.628271
0.628271
0
0
0
0
0
0.628271
0
0
0
0
1
0
0
0
0
1
0.755948
0.755948
1
1
0.755948
0.848793
1
0
0.848793
0
0
0
0.970272
0.970272
0
0.687752
0.687752
0.970272
1
0
1
1
0.747933
0.747933
1
0
0
0
0.747933
1
0
1
0
0
1
1
0.868867
1
1
0.77383
0.77383
1
1
0
0
1
0.655094
0.655094
1
1
0.655094
0
1
1
0
1
1
1
0.884582
0.884582
1
0.818547
0.818547
0.884582
1
1
0.858109
0
0
0
0
0.723073
0.723073
1
0
1
0
0
1
0
0
1
0
1
0.833299
0
0.858269
0.858269
1
1
1
0
1
1
1
0
0
1
1
1
0
1
1
0
0
0.946946
0.946946
0
1
0.835672
0.946946
0.952108
0
0.835672
0.952108
0
0
0
0.792876
1
1
0.792876
1
0
0.946649
0.946649
0
0.833997
0.946649
0
0
0.84634
0
0
0.776762
0.776762
0
1
0
0
1
0
1
0
0
1
0
0
0
0
1
0
0
1
0.852683
0.852683
0
1
0.852683
0.962039
0.589468
0
1
1
1
0
0
0
0.258551
0.258551
0
0
1
1
1
0.848273
0
0.258551
1
1
1
0
0
0
0
0
0
0
1
1
1
1
0
1
1
0
1
0
1
1
0
0.848877
0
0
0
0.791069
0.791069
0
0
0
1
1
0.869916
0
0.992559
0.992559
0
0.882351
0.869916
0
0.992559
1
1
0
0
0
1
1
1
0.843109
1
1
1
1
1
1
0.999273
0.999273
1
1
0.999273
0.323179
0
0.868638
1
0.882992
1
1
0.882992
0
0
0
0
0.771897
0.771897
0
1
1
1
0
0.771897
1
0
0
0.902033
0.902033
0
1
0
0
0.902033
0.899918
0
1
0.978089
0.978089
0.899918
1
0
0
0
0
0
0.978089
1
1
1
1
1
1
0
1
1
0
0
1
1
0
0
0
0.8213
1
1
1
1
1
0.8213
0
0
1
0
0
1
1
0
1
1
0.947463
0.947463
0
1
0
0.947463
0
0.914269
0.965866
1
1
0
1
1
0
1
1
1
1
1
1
0.998555
0.998555
1
1
0.792492
0.736507
0.998555
1
1
1
0
0
0
0.840891
1
1
0.875092
0.875092
1
1
0.814066
1
1
0.814066
1
1
0
1
0
0.938271
0.938271
0.855445
1
0.829681
0.97232
0.97232
0.938271
0.855445
0.861467
0.861467
0
0.829681
0.97232
0
0
1
0
0.679608
0.679608
0
0
1
0.679608
0
1
0
1
1
0
1
1
0
0.699439
0.699439
0.821972
1
0.699439
0.712444
1
1
1
0.712444
0
1
1
0.970748
0.970748
0.74047
0
0.931892
0.931892
0.970748
0.74047
0
0.721872
0.931892
0
0
0
0
1
0.721872
0
0
0
0
0.912372
0
0
0.853918
0.853918
1
1
0
0
1
1
0.870957
0.870957
0
0
0.870957
0.881987
0.881987
1
1
1
0.87696
0
1
0.746464
0
0
0
1
0
1
0.97072
0.97072
1
0.957838
0.999121
0.999121
0.97072
0.721264
0.644181
0.644181
0.957838
0.999121
0.787894
0.787894
0.86605
0.866675
0.866675
1
1
0.86605
1
1
0
0.993874
0.993874
0.74128
0.955777
1
0.875284
0.875284
0.764805
0.993874
0.74128
0.752306
0.752306
1
0.821751
0
0.992337
0.992337
0.969086
0.750686
0.750686
0.427934
0.992337
0
0.750686
0.627981
0.65858
0.368984
0.358499
0.364696
0.361291
0.364002
0.3641
0.359395
0.371507
0.380844
0.376732
0.37151
0.355297
0.363586
0.384146
0.372811
0.361512
0.363894
0.362661
0.357626
0.363662
0.359417
0.352847
0.362475
0.370919
0.371083
0.354067
0.371865
0.357346
0.363358
0.370325
0.373094
0.375129
0.363622
0.378916
0.366783
0.38246
0.364038
0.36375
0.349682
0.367491
0.361498
0.394641
0.356309
0.372335
0.364007
0.360424
0.357111
0.369365
0.349277
0.384838
0.363234
0.351553
0.351954
0.357677
0.360916
0.375486
0.358645
0.363721
0.390415
0.384237
0.349018
0.348574
0.366738
0.361631
0.384834
0.35882
0.363885
0.351585
0.3777
0.389305
0.369516
0.357919
0.352262
0.337299
0.367548
0.365025
0.371155
0.366738
0.371997
0.368318
0.35297
0.350952
0.36369
0.364121
0.362443
0.39677
0.377302
0.375228
0.367176
0.351942
0.37106
0.360178
0.369081
0.364887
0.338924
0.348283
0.374441
0.364348
0.358385
0.346718
0.363287
0.372705
0.371283
0.363307
0.354697
0.361352
0.368365
0.386929
0.379196
0.360133
0.359801
0.349623
0.352103
0.365869
0.378332
0.349185
0.359575
0.360467
0.380302
0.352782
0.375886
0.366077
0.357446
0.375877
0.382526
0.385702
0.362447
0.355152
0.355221
0.369446
0.349783
0.36289
0.379421
0.36746
0.354544
0.361353
0.383304
0.362105
0.376195
0.38273
0.366904
0.366748
0.347588
0.379263
0.373908
0.370798
0.373457
0.366759
0.348785
0.362799
0.391955
0.371158
0.353379
0.352116
0.368374
0.368939
0.352951
0.371291
0.374301
0.36745
0.363297
0.364421
0.369018
0.356259
0.358421
0.361275
0.355624
0.383643
0.351913
0.367065
0.366321
0.361513
0.35193
0.376239
0.372263
0.369437
0.349432
0.366844
0.375607
0.369123
0.356916
0.342109
0.383362
0.373145
0.361064
0.35246
0.357284
0.38625
0.356705
0.357502
0.368196
0.366406
0.368599
0.354727
0.359202
0.37186
0.365469
0.374728
0.369989
0.357199
0.366503
0.373522
0.360948
0.368013
0.365343
0.355504
0.337698
0.362287
0.367745
0.393035
0.380318
0.355087
0.363199
0.364514
0.372327
0.357039
0.354141
0.380669
0.362843
0.366124
0.371484
0.327739
0.360321
0.361898
0.371555
0.367175
0.359463
0.359933
0.364247
0.360812
0.371014
0.36788
0.355859
0.348546
0.368545
0.349863
0.37484
0.37979
0.357477
0.355167
0.372654
0.369382
0.384037
0.353188
0.373772
0.378175
0.359403
0.357376
0.35851
0.38219
0.349167
0.371732
0.387745
0.361051
0.37711
0.349611
0.362955
0.361183
0.355137
0.369859
0.362143
0.36497
0.38017
0.358603
0.393308
0.377083
0.38005
0.354625
0.339183
0.371165
0.364057
0.365975
0.378136
0.364411
0.374723
0.380997
0.377536
0.363513
0.375668
0.371046
0.368792
0.372165
0.385748
0.368726
0.355394
0.363461
0.358853
0.355647
0.360048
0.369409
0.364913
0.368999
0.360689
0.374293
0.371128
0.349268
0.354217
0.368116
0.356546
0.36942
0.361189
0.37059
0.38072
0.366923
0.372027
0.365451
0.384293
0.367705
0.369301
0.384464
0.367724
0.365303
0.364584
0.367161
0.356577
0.35213
0.362877
0.348563
0.351884
0.372635
0.357567
0.372436
0.37745
0.357291
0.35678
0.379234
0.359348
0.370371
0.371501
0.368202
0.359621
0.382516
0.364504
0.371937
0.393848
0.351331
0.369581
0.355336
0.369128
0.375309
0.364517
0.366029
0.371646
0.36434
0.378253
0.356533
0.371701
0.360423
0.369313
0.365114
0.371963
0.378368
0.3682
0.361667
0.360401
0.364974
0.355316
0.358982
0.362858
0.37085
0.391117
0.374696
0.384619
0.361746
0.359484
0.35459
0.375132
0.359939
0.343632
0.365611
0.358917
0.372213
0.381188
0.371261
0.357739
0.378756
0.389065
0.372936
0.363235
0.36114
0.355083
0.358145
0.357397
0.371331
0.368026
0.373849
0.363478
0.371531
0.365345
0.382474
0.386341
0.356371
0.3588
0.361772
0.383613
0.361376
0.361261
0.366408
0.373503
0.36707
0.353766
0.351519
0.358135
0.376998
0.36114
0.383148
0.36359
0.358717
0.356455
0.367858
0.372312
0.367252
0.367162
0.356281
0.387763
0.383604
0.361373
0.346663
0.351887
0.356028
0.355277
0.369018
0.359983
0.36456
0.351551
0.361004
0.381865
0.379075
0.375184
0.361699
0.347792
0.36376
0.37759
0.359378
0.347124
0.372904
0.365219
0.388933
0.370073
0.375088
0.362797
0.357621
0.361909
0.363881
0.357943
0.363573
0.381534
0.366235
0.363515
0.37578
0.352269
0.355055
0.366143
0.367068
0.367495
0.379922
0.369046
0.354826
0.341023
0.372597
0.367195
0.353441
0.379185
0.386095
0.3481
0.376039
0.360233
0.384986
0.376156
0.365221
0.377905
0.364798
0.389694
0.367194
0.359052
0.35863
0.355262
0.344668
0.370948
0.368749
0.348652
0.374132
0.370269
0.358127
0.37418
0.380995
0.371823
0.370506
0.36642
0.365103
0.351364
0.359389
0.402719
0.395419
0.363763
0.383508
0.353956
0.357653
0.368059
0.37149
0.35419
0.364763
0.37876
0.394324
0.381641
0.357165
0.369617
0.371375
0.369389
0.357514
0.356845
0.35599
0.380507
0.372091
0.366412
0.364542
0.356551
0.367043
0.384502
0.363988
0.379946
0.356046
0.351559
0.353313
0.365493
0.372101
0.383872
0.361987
0.363254
0.356374
0.36476
0.381013
0.363795
0.374025
0.359855
0.354025
0.355894
0.379183
0.36343
0.37389
0.379491
0.363949
0.352635
0.375312
0.366213
0.362277
0.375301
0.364239
0.363634
0.359431
0.336972
0.367737
0.370415
0.373914
0.381876
0.363236
0.369694
0.363231
0.37089
0.352685
0.354113
0.364715
0.366861
0.369267
0.375296
0.364952
0.365261
0.383806
0.364058
0.370725
0.394823
0.355823
0.364845
0.335659
0.350283
0.373653
0.368865
0.361472
0.383062
0.390154
0.385481
0.366343
0.3829
0.364738
0.350176
0.369753
0.359856
0.371577
0.361127
0.345131
0.345831
0.365529
0.369851
0.375743
0.358076
0.361425
0.381398
0.360765
0.361843
0.364131
0.382202
0.366744
0.363488
0.358915
0.380595
0.392341
0.351606
0.378869
0.380708
0.341093
0.365663
0.376092
0.382738
0.361302
0.366468
0.372972
0.369556
0.36912
0.355123
0.33852
0.363719
0.403802
0.36641
0.361209
0.362146
0.350855
0.358859
0.357833
0.36999
0.372293
0.36059
0.378799
0.38747
0.35908
0.364986
0.360109
0.369755
0.366481
0.351027
0.37992
0.379606
0.370999
0.370141
0.345543
0.341007
0.37794
0.36991
0.34827
0.371312
0.386511
0.363729
0.377438
0.365866
0.356521
0.385031
0.375096
0.36053
0.367033
0.352434
0.356105
0.379764
0.378415
0.348235
0.362301
0.372316
0.374121
0.383432
0.391506
0.366231
0.358965
0.366695
0.369168
0.361989
0.341067
0.361509
0.367112
0.372246
0.390566
0.364902
0.358684
0.369233
0.343655
0.365756
0.374134
0.359759
0.375021
0.384228
0.356042
0.353099
0.357778
0.369134
0.360207
0.356137
0.357249
0.360927
0.386039
0.381711
0.338119
0.359407
0.384844
0.370162
0.366253
0.36814
0.360763
0.367695
0.358371
0.38087
0.363837
0.3787
0.361139
0.360173
0.366079
0.377219
0.353162
0.350325
0.358591
0.366954
0.346937
0.373583
0.366392
0.364994
0.361503
0.369292
0.374875
0.370959
0.365032
0.362392
0.377842
0.377541
0.371048
0.333951
0.341596
0.350781
0.371628
0.370906
0.371064
0.380638
0.383918
0.37429
0.354496
0.36848
0.347345
0.360258
0.376607
0.351183
0.351227
0.365413
0.352221
0.361904
0.363893
0.36236
0.386155
0.384766
0.368228
0.362542
0.373384
0.36798
0.351779
0.375375
0.369791
0.369941
0.361711
0.392477
0.370736
0.372783
0.368678
0.36345
0.367887
0.374017
0.369956
0.35608
0.348827
0.383882
0.363799
0.356687
0.372996
0.365978
0.357619
0.377348
0.373137
0.358068
0.375027
0.362352
0.37172
0.373114
0.34703
0.345277
0.372836
0.359384
0.369789
0.371078
0.363992
0.37288
0.370585
0.371553
0.365057
0.367958
0.367243
0.360798
0.352296
0.374126
0.364612
0.369323
0.376777
0.365552
0.372721
0.355236
0.361786
0.367176
0.364279
0.370589
0.35008
0.349029
0.373319
0.384616
0.371895
0.37484
0.364553
0.347605
0.361072
0.387614
0.38503
0.366042
0.353588
0.36339
0.368542
0.355159
0.377331
0.360581
0.343629
0.373707
0.36967
0.350314
0.379104
0.372319
0.354412
0.387392