# vtk DataFile Version 2.0
2D Surface
ASCII
DATASET UNSTRUCTURED_GRID
POINTS 2273 float
7.06965e-05 -1.683e-05 0. 
7.074e-05 -1.68377e-05 0. 
7.083e-05 -1.68397e-05 0. 
7.092e-05 -1.68355e-05 0. 
7.101e-05 -1.68364e-05 0. 
7.11e-05 -1.68344e-05 0. 
7.119e-05 -1.68381e-05 0. 
7.128e-05 -1.68349e-05 0. 
7.13524e-05 -1.683e-05 0. 
7.13861e-05 -1.683e-05 0. 
7.146e-05 -1.68355e-05 0. 
7.155e-05 -1.6833e-05 0. 
7.164e-05 -1.68378e-05 0. 
7.173e-05 -1.68393e-05 0. 
7.182e-05 -1.68455e-05 0. 
7.191e-05 -1.68458e-05 0. 
7.2e-05 -1.6844e-05 0. 
7.209e-05 -1.68384e-05 0. 
7.218e-05 -1.68524e-05 0. 
7.227e-05 -1.68525e-05 0. 
7.236e-05 -1.68507e-05 0. 
7.245e-05 -1.68556e-05 0. 
7.254e-05 -1.68564e-05 0. 
7.263e-05 -1.68629e-05 0. 
7.272e-05 -1.68637e-05 0. 
7.281e-05 -1.68629e-05 0. 
7.29e-05 -1.68631e-05 0. 
7.299e-05 -1.68642e-05 0. 
7.308e-05 -1.68749e-05 0. 
7.317e-05 -1.68788e-05 0. 
7.326e-05 -1.68858e-05 0. 
7.335e-05 -1.68821e-05 0. 
7.344e-05 -1.68816e-05 0. 
7.353e-05 -1.68873e-05 0. 
7.362e-05 -1.68907e-05 0. 
7.371e-05 -1.68899e-05 0. 
7.38e-05 -1.68898e-05 0. 
7.389e-05 -1.68858e-05 0. 
7.398e-05 -1.68805e-05 0. 
7.407e-05 -1.68775e-05 0. 
7.416e-05 -1.68789e-05 0. 
7.425e-05 -1.68813e-05 0. 
7.434e-05 -1.68765e-05 0. 
7.443e-05 -1.68742e-05 0. 
7.452e-05 -1.68799e-05 0. 
7.461e-05 -1.68858e-05 0. 
7.47e-05 -1.68897e-05 0. 
7.479e-05 -1.68835e-05 0. 
7.488e-05 -1.6878e-05 0. 
7.497e-05 -1.68789e-05 0. 
7.506e-05 -1.68791e-05 0. 
7.515e-05 -1.68822e-05 0. 
7.524e-05 -1.68823e-05 0. 
7.533e-05 -1.68861e-05 0. 
7.542e-05 -1.68893e-05 0. 
7.551e-05 -1.68912e-05 0. 
7.56e-05 -1.68855e-05 0. 
7.569e-05 -1.68827e-05 0. 
7.578e-05 -1.68818e-05 0. 
7.587e-05 -1.68881e-05 0. 
7.596e-05 -1.68892e-05 0. 
7.605e-05 -1.68828e-05 0. 
7.614e-05 -1.68854e-05 0. 
7.623e-05 -1.68858e-05 0. 
7.632e-05 -1.68824e-05 0. 
7.641e-05 -1.68726e-05 0. 
7.65e-05 -1.68719e-05 0. 
7.659e-05 -1.68762e-05 0. 
7.668e-05 -1.68716e-05 0. 
7.677e-05 -1.68716e-05 0. 
7.686e-05 -1.68687e-05 0. 
7.695e-05 -1.68679e-05 0. 
7.704e-05 -1.68626e-05 0. 
7.713e-05 -1.68726e-05 0. 
7.722e-05 -1.68741e-05 0. 
7.731e-05 -1.68732e-05 0. 
7.74e-05 -1.68726e-05 0. 
7.749e-05 -1.68647e-05 0. 
7.758e-05 -1.68648e-05 0. 
7.767e-05 -1.68668e-05 0. 
7.776e-05 -1.68734e-05 0. 
7.785e-05 -1.68739e-05 0. 
7.794e-05 -1.68635e-05 0. 
7.803e-05 -1.68594e-05 0. 
7.812e-05 -1.68568e-05 0. 
7.821e-05 -1.68495e-05 0. 
7.83e-05 -1.68422e-05 0. 
7.839e-05 -1.68419e-05 0. 
7.848e-05 -1.68362e-05 0. 
7.857e-05 -1.68379e-05 0. 
7.866e-05 -1.6839e-05 0. 
7.875e-05 -1.68357e-05 0. 
7.884e-05 -1.68339e-05 0. 
7.893e-05 -1.68378e-05 0. 
7.902e-05 -1.68392e-05 0. 
7.911e-05 -1.68366e-05 0. 
7.92e-05 -1.68308e-05 0. 
7.929e-05 -1.68303e-05 0. 
7.938e-05 -1.68343e-05 0. 
7.947e-05 -1.683e-05 0. 
7.94705e-05 -1.683e-05 0. 
7.9814e-05 -1.683e-05 0. 
7.983e-05 -1.68304e-05 0. 
7.98354e-05 -1.683e-05 0. 
6.74017e-05 -1.674e-05 0. 
6.741e-05 -1.67402e-05 0. 
6.75e-05 -1.675e-05 0. 
6.759e-05 -1.67529e-05 0. 
6.768e-05 -1.67581e-05 0. 
6.777e-05 -1.67645e-05 0. 
6.786e-05 -1.67663e-05 0. 
6.795e-05 -1.67638e-05 0. 
6.804e-05 -1.67605e-05 0. 
6.813e-05 -1.67673e-05 0. 
6.822e-05 -1.6771e-05 0. 
6.831e-05 -1.67786e-05 0. 
6.84e-05 -1.67747e-05 0. 
6.849e-05 -1.67772e-05 0. 
6.858e-05 -1.67812e-05 0. 
6.867e-05 -1.67855e-05 0. 
6.876e-05 -1.67927e-05 0. 
6.885e-05 -1.6797e-05 0. 
6.894e-05 -1.68009e-05 0. 
6.903e-05 -1.68065e-05 0. 
6.912e-05 -1.68065e-05 0. 
6.921e-05 -1.68021e-05 0. 
6.93e-05 -1.67928e-05 0. 
6.939e-05 -1.67973e-05 0. 
6.948e-05 -1.68032e-05 0. 
6.957e-05 -1.68066e-05 0. 
6.966e-05 -1.68126e-05 0. 
6.975e-05 -1.68129e-05 0. 
6.984e-05 -1.68135e-05 0. 
6.993e-05 -1.68104e-05 0. 
7.002e-05 -1.68169e-05 0. 
7.011e-05 -1.68235e-05 0. 
7.02e-05 -1.68265e-05 0. 
7.029e-05 -1.68294e-05 0. 
7.038e-05 -1.68248e-05 0. 
7.047e-05 -1.6825e-05 0. 
7.056e-05 -1.68214e-05 0. 
7.065e-05 -1.68218e-05 0. 
7.137e-05 -1.68288e-05 0. 
7.956e-05 -1.68214e-05 0. 
7.965e-05 -1.68289e-05 0. 
7.974e-05 -1.68282e-05 0. 
7.992e-05 -1.68241e-05 0. 
8.001e-05 -1.68172e-05 0. 
8.01e-05 -1.68205e-05 0. 
8.019e-05 -1.6821e-05 0. 
8.028e-05 -1.6814e-05 0. 
8.037e-05 -1.68102e-05 0. 
8.046e-05 -1.68101e-05 0. 
8.055e-05 -1.68047e-05 0. 
8.064e-05 -1.67986e-05 0. 
8.073e-05 -1.67966e-05 0. 
8.082e-05 -1.67963e-05 0. 
8.091e-05 -1.67998e-05 0. 
8.1e-05 -1.67984e-05 0. 
8.109e-05 -1.67912e-05 0. 
8.118e-05 -1.67875e-05 0. 
8.127e-05 -1.67803e-05 0. 
8.136e-05 -1.67775e-05 0. 
8.145e-05 -1.67698e-05 0. 
8.154e-05 -1.67622e-05 0. 
8.163e-05 -1.67566e-05 0. 
8.172e-05 -1.67579e-05 0. 
8.181e-05 -1.67565e-05 0. 
8.19e-05 -1.67491e-05 0. 
8.199e-05 -1.67417e-05 0. 
8.208e-05 -1.67463e-05 0. 
8.217e-05 -1.675e-05 0. 
8.226e-05 -1.67487e-05 0. 
8.235e-05 -1.6745e-05 0. 
8.24115e-05 -1.674e-05 0. 
6.55215e-05 -1.665e-05 0. 
6.561e-05 -1.66532e-05 0. 
6.57e-05 -1.66565e-05 0. 
6.579e-05 -1.6655e-05 0. 
6.588e-05 -1.66563e-05 0. 
6.597e-05 -1.66662e-05 0. 
6.606e-05 -1.66666e-05 0. 
6.615e-05 -1.66768e-05 0. 
6.624e-05 -1.66908e-05 0. 
6.633e-05 -1.66966e-05 0. 
6.642e-05 -1.67035e-05 0. 
6.651e-05 -1.67069e-05 0. 
6.66e-05 -1.67096e-05 0. 
6.669e-05 -1.67171e-05 0. 
6.678e-05 -1.67235e-05 0. 
6.687e-05 -1.67258e-05 0. 
6.696e-05 -1.67269e-05 0. 
6.705e-05 -1.6733e-05 0. 
6.714e-05 -1.6738e-05 0. 
6.723e-05 -1.67378e-05 0. 
6.732e-05 -1.67381e-05 0. 
8.244e-05 -1.67377e-05 0. 
8.253e-05 -1.67314e-05 0. 
8.262e-05 -1.67317e-05 0. 
8.271e-05 -1.67264e-05 0. 
8.28e-05 -1.67234e-05 0. 
8.289e-05 -1.67154e-05 0. 
8.298e-05 -1.67167e-05 0. 
8.307e-05 -1.67112e-05 0. 
8.316e-05 -1.67076e-05 0. 
8.325e-05 -1.67053e-05 0. 
8.334e-05 -1.66956e-05 0. 
8.343e-05 -1.66925e-05 0. 
8.352e-05 -1.66884e-05 0. 
8.361e-05 -1.6685e-05 0. 
8.37e-05 -1.66778e-05 0. 
8.379e-05 -1.6673e-05 0. 
8.388e-05 -1.66778e-05 0. 
8.397e-05 -1.66733e-05 0. 
8.406e-05 -1.66644e-05 0. 
8.415e-05 -1.66607e-05 0. 
8.424e-05 -1.66591e-05 0. 
8.433e-05 -1.66607e-05 0. 
8.442e-05 -1.66563e-05 0. 
8.44642e-05 -1.665e-05 0. 
6.39674e-05 -1.656e-05 0. 
6.399e-05 -1.65617e-05 0. 
6.408e-05 -1.65669e-05 0. 
6.417e-05 -1.65763e-05 0. 
6.426e-05 -1.65824e-05 0. 
6.435e-05 -1.65861e-05 0. 
6.444e-05 -1.65834e-05 0. 
6.453e-05 -1.65934e-05 0. 
6.462e-05 -1.66064e-05 0. 
6.471e-05 -1.66081e-05 0. 
6.48e-05 -1.66127e-05 0. 
6.489e-05 -1.66193e-05 0. 
6.498e-05 -1.66296e-05 0. 
6.507e-05 -1.66379e-05 0. 
6.516e-05 -1.66404e-05 0. 
6.525e-05 -1.66436e-05 0. 
6.534e-05 -1.66443e-05 0. 
6.543e-05 -1.66444e-05 0. 
6.552e-05 -1.66499e-05 0. 
8.451e-05 -1.66434e-05 0. 
8.46e-05 -1.66369e-05 0. 
8.469e-05 -1.66369e-05 0. 
8.478e-05 -1.66341e-05 0. 
8.487e-05 -1.66261e-05 0. 
8.496e-05 -1.66239e-05 0. 
8.505e-05 -1.66169e-05 0. 
8.514e-05 -1.66144e-05 0. 
8.523e-05 -1.66044e-05 0. 
8.532e-05 -1.65972e-05 0. 
8.541e-05 -1.65935e-05 0. 
8.55e-05 -1.65896e-05 0. 
8.559e-05 -1.65844e-05 0. 
8.568e-05 -1.65772e-05 0. 
8.577e-05 -1.65755e-05 0. 
8.586e-05 -1.65779e-05 0. 
8.595e-05 -1.6569e-05 0. 
8.60247e-05 -1.656e-05 0. 
6.29278e-05 -1.647e-05 0. 
6.3e-05 -1.6476e-05 0. 
6.309e-05 -1.64919e-05 0. 
6.318e-05 -1.65011e-05 0. 
6.327e-05 -1.65054e-05 0. 
6.336e-05 -1.65127e-05 0. 
6.345e-05 -1.65145e-05 0. 
6.354e-05 -1.6518e-05 0. 
6.363e-05 -1.65278e-05 0. 
6.372e-05 -1.65351e-05 0. 
6.381e-05 -1.6548e-05 0. 
6.39e-05 -1.6555e-05 0. 
8.604e-05 -1.65582e-05 0. 
8.613e-05 -1.65526e-05 0. 
8.622e-05 -1.65413e-05 0. 
8.631e-05 -1.65322e-05 0. 
8.64e-05 -1.65319e-05 0. 
8.649e-05 -1.65238e-05 0. 
8.658e-05 -1.65141e-05 0. 
8.667e-05 -1.65024e-05 0. 
8.676e-05 -1.64974e-05 0. 
8.685e-05 -1.64871e-05 0. 
8.694e-05 -1.64831e-05 0. 
8.703e-05 -1.64782e-05 0. 
8.712e-05 -1.64732e-05 0. 
8.721e-05 -1.64711e-05 0. 
8.72238e-05 -1.647e-05 0. 
6.18831e-05 -1.638e-05 0. 
6.192e-05 -1.6384e-05 0. 
6.201e-05 -1.63912e-05 0. 
6.21e-05 -1.63984e-05 0. 
6.219e-05 -1.64034e-05 0. 
6.228e-05 -1.64165e-05 0. 
6.237e-05 -1.64313e-05 0. 
6.246e-05 -1.64419e-05 0. 
6.255e-05 -1.64486e-05 0. 
6.264e-05 -1.64572e-05 0. 
6.273e-05 -1.64602e-05 0. 
6.282e-05 -1.64638e-05 0. 
6.291e-05 -1.64685e-05 0. 
8.73e-05 -1.6464e-05 0. 
8.739e-05 -1.64614e-05 0. 
8.748e-05 -1.64575e-05 0. 
8.757e-05 -1.64487e-05 0. 
8.766e-05 -1.644e-05 0. 
8.775e-05 -1.64296e-05 0. 
8.784e-05 -1.642e-05 0. 
8.793e-05 -1.64071e-05 0. 
8.802e-05 -1.63991e-05 0. 
8.811e-05 -1.63944e-05 0. 
8.82e-05 -1.63856e-05 0. 
8.82247e-05 -1.638e-05 0. 
6.11048e-05 -1.629e-05 0. 
6.111e-05 -1.62952e-05 0. 
6.11539e-05 -1.629e-05 0. 
6.12126e-05 -1.629e-05 0. 
6.129e-05 -1.63237e-05 0. 
6.138e-05 -1.63208e-05 0. 
6.147e-05 -1.63424e-05 0. 
6.156e-05 -1.63448e-05 0. 
6.165e-05 -1.63602e-05 0. 
6.174e-05 -1.63655e-05 0. 
6.183e-05 -1.63742e-05 0. 
8.829e-05 -1.63652e-05 0. 
8.838e-05 -1.6361e-05 0. 
8.847e-05 -1.63469e-05 0. 
8.856e-05 -1.63388e-05 0. 
8.865e-05 -1.63145e-05 0. 
8.874e-05 -1.63124e-05 0. 
8.88059e-05 -1.629e-05 0. 
6.10202e-05 -1.62e-05 0. 
6.12e-05 -1.62845e-05 0. 
8.883e-05 -1.62818e-05 0. 
8.892e-05 -1.62633e-05 0. 
8.89813e-05 -1.62e-05 0. 
6.09769e-05 -1.611e-05 0. 
6.102e-05 -1.61996e-05 0. 
8.901e-05 -1.61438e-05 0. 
8.90272e-05 -1.611e-05 0. 
6.09695e-05 -1.602e-05 0. 
8.90393e-05 -1.602e-05 0. 
6.09687e-05 -1.593e-05 0. 
8.90402e-05 -1.593e-05 0. 
6.09682e-05 -1.584e-05 0. 
8.90427e-05 -1.584e-05 0. 
6.0971e-05 -1.575e-05 0. 
8.90397e-05 -1.575e-05 0. 
6.09699e-05 -1.566e-05 0. 
8.90378e-05 -1.566e-05 0. 
6.09707e-05 -1.557e-05 0. 
8.90372e-05 -1.557e-05 0. 
6.09694e-05 -1.548e-05 0. 
8.90394e-05 -1.548e-05 0. 
6.09682e-05 -1.539e-05 0. 
8.90386e-05 -1.539e-05 0. 
6.09654e-05 -1.53e-05 0. 
8.90382e-05 -1.53e-05 0. 
6.09637e-05 -1.521e-05 0. 
8.90343e-05 -1.521e-05 0. 
6.0963e-05 -1.512e-05 0. 
8.90381e-05 -1.512e-05 0. 
6.09658e-05 -1.503e-05 0. 
8.90367e-05 -1.503e-05 0. 
6.09586e-05 -1.494e-05 0. 
8.90372e-05 -1.494e-05 0. 
6.0958e-05 -1.485e-05 0. 
8.90437e-05 -1.485e-05 0. 
6.09556e-05 -1.476e-05 0. 
8.90483e-05 -1.476e-05 0. 
6.09494e-05 -1.467e-05 0. 
8.90383e-05 -1.467e-05 0. 
6.09598e-05 -1.458e-05 0. 
[...]
POINT_DATA 2273
SCALARS Coverage0 float 1
LOOKUP_TABLE default
0.279025
0.279025
0.266118
0.292024
0.295173
0.314411
0.313045
0.301214
0.28652
0.28652
0.300313
0.304765
0.294092
0.29145
0.282625
0.304484
0.305916
0.300006
0.288102
0.275018
0.294052
0.316887
0.31336
0.306565
0.309009
0.326025
0.297431
0.287302
0.28159
0.325278
0.293469
0.302738
0.291112
0.300612
0.304476
0.314166
0.312563
0.298791
0.280102
0.275251
0.298692
0.3051
0.295008
0.304143
0.306588
0.309986
0.314078
0.295419
0.280231
0.286867
0.305912
0.288639
0.28814
0.294351
0.300769
0.302662
0.26898
0.298732
0.29796
0.290587
0.305773
0.308023
0.314984
0.290586
0.294571
0.276526
0.291006
0.307968
0.283864
0.288257
0.300195
0.299714
0.318576
0.292062
0.313955
0.291181
0.288669
0.293173
0.292729
0.314224
0.295519
0.281014
0.279292
0.270008
0.283569
0.299421
0.263362
0.268498
0.280948
0.309541
0.321344
0.293555
0.270971
0.306397
0.305908
0.306142
0.278152
0.27708
0.309903
0.296847
0.296847
0.289383
0.289383
0.289383
0.295801
0.295801
0.284984
0.290543
0.285432
0.290854
0.256557
0.232718
0.270403
0.277719
0.263826
0.247809
0.260544
0.27586
0.295441
0.29471
0.326005
0.30648
0.292308
0.282415
0.277086
0.306226
0.321713
0.270492
0.309462
0.309839
0.316659
0.317074
0.298272
0.289126
0.296227
0.305173
0.313388
0.293511
0.286882
0.292017
0.287328
0.309606
0.28652
0.302302
0.313892
0.291585
0.305995
0.312314
0.305796
0.286791
0.275766
0.294154
0.28184
0.27092
0.283233
0.268006
0.250488
0.254878
0.294091
0.329296
0.282495
0.321718
0.292097
0.260234
0.296352
0.314067
0.30272
0.28343
0.295138
0.291982
0.270209
0.268527
0.288141
0.29992
0.321389
0.267959
0.266388
0.284262
0.259529
0.253279
0.270204
0.261421
0.261609
0.313389
0.30797
0.290638
0.270994
0.284157
0.26861
0.300163
0.302635
0.295085
0.321156
0.274262
0.26112
0.275691
0.321389
0.28124
0.271754
0.270998
0.277284
0.28833
0.299921
0.289611
0.273814
0.273397
0.273116
0.271057
0.246831
0.277353
0.284485
0.264891
0.290781
0.248265
0.277894
0.26522
0.271874
0.264623
0.27752
0.27752
0.267815
0.267815
0.268829
0.245986
0.249641
0.268279
0.259214
0.283281
0.289966
0.291074
0.288439
0.305395
0.274813
0.277187
0.258271
0.285646
0.262402
0.249673
0.267959
0.27728
0.273144
0.291756
0.274705
0.25447
0.261349
0.263156
0.275025
0.296041
0.286753
0.243944
0.259421
0.271386
0.286706
0.26316
0.253292
0.255194
0.265014
0.257287
0.255427
0.266976
0.285386
0.281736
0.264403
0.266781
0.288495
0.304341
0.288344
0.289796
0.264215
0.265014
0.284411
0.267519
0.247979
0.241753
0.260768
0.266469
0.257251
0.27132
0.299018
0.258253
0.259542
0.272835
0.278949
0.278949
0.24635
0.24635
0.235325
0.240299
0.255618
0.252229
0.244608
0.257844
0.2614
0.260371
0.267261
0.267411
0.257287
0.258085
0.253316
0.250845
0.249355
0.26116
0.267418
0.287275
0.24511
0.248536
0.25326
0.264173
0.264173
0.306137
0.306137
0.306137
0.246793
0.236089
0.230915
0.2321
0.265679
0.281609
0.267385
0.250137
0.263877
0.257804
0.27278
0.266536
0.248254
0.25808
0.28436
0.515585
0.246793
0.28436
0.321127
0.50906
0.753471
0.515585
0.696281
0.696281
0.965138
0.933752
0.978442
0.988844
0.856215
0.987147
0.959699
1
0.986573
0.993556
0.953488
0.940901
0.97653
0.555078
0.96429
0.874583
0.958361
0.494951
0.964243
0.533363
0.864273
0.941163
0.92461
0.950075
0.839442
0.891786
0.748068
0.796366
0.92023
0.997617
1
0.991273
1
0.950111
0.988299
0.996964
0.987929
0.982033
0.984354
0.990379
0.973448
0.797406
0.959717
0.860511
1
1
0.923992
0
0.798832
1
0.802769
0
0.941382
0.896803
0.946569
0.930057
1
0.978087
1
1
0.852377
0.897589
0.818058
0.857562
0.944298
0.973319
0.915413
0.915413
0.911988
1
0.797621
1
0
0.637206
0.845352
0
0
0.822537
0
0.853226
0.853226
0.82142
0.795966
0.853226
1
1
1
0.871147
1
1
0.797661
0.797661
1
1
0.797661
0.833737
0
0
0.833737
0.787209
0
0
0
1
0
0.859597
0.906799
1
0.843405
1
0.871975
1
1
1
0
0
1
0
0.841182
0.841182
0.874107
0.828856
0
0.874107
0
0
1
1
0
0.884337
1
1
1
0.884337
1
1
1
1
1
1
1
0
0.802747
0.802747
0
0.802747
0.699606
0
0.989913
0.699606
1
0.573906
0.573906
1
0.803745
0
1
1
0
1
0
1
0
0.904597
0
0.844268
0
0
0.823051
0.823051
0.580922
1
1
0.580922
0.958424
0.989243
0
0.958424
0
0
0
0
0
0.850839
0
0
0.850839
0
0
0
0.866429
1
0.734298
0.734298
0
1
0
0.992893
0.992893
1
0
0.992893
0.778887
0.778887
1
0.785756
0
0
0
0
0
1
1
0
0
0
1
0
0
1
1
0
0.824492
0.900843
0.824492
0.777365
1
0.900843
1
1
0.735275
0
0
0.735275
0
1
0.938099
0.938099
1
0.814655
0.938099
1
1
0.761519
0.807356
0.807356
0.705242
0.761519
0.807356
0
1
1
0
1
0
1
1
0
1
1
0
1
0.918132
0.918132
0
0
0.918132
0.809695
0.809695
0
0
0
0
0
0.809827
0.809827
1
0
0
0.99822
0.809827
0
0
0
0.659818
1
1
1
1
1
0
0
0
0
0
0
0
0
0
1
0
0
1
0.589088
1
1
1
0
1
1
1
1
0
0
0
0.926509
0.926509
1
0.761429
0.761429
0.926509
0
0
1
1
1
0
0
0
0.89333
0
1
0
0
0
0.89333
0.845811
0.845811
0
0.845811
0.829934
1
0.751889
0
0.858845
0.858845
0
0
1
1
1
0
0
1
0
0
0
1
0
0
1
1
0.947455
0.947455
0
1
1
0.947455
0.954226
1
1
1
0
0
1
1
1
0
0
0
0
0
0
0
0
0
1
0.964119
0.964119
1
1
0.976248
0.975833
0.975833
0.964119
1
1
1
0.806026
0.976248
0.975833
0
0
0
0
0
0.806026
1
1
0
1
1
0
0
1
0
0
0
0.803788
1
0.611437
0.611437
0
0
1
0
0
1
0
0
0
0
0
0
0.909459
0.909459
0
0
0.58804
0.890449
0.909459
0.988781
0.988781
0
1
1
1
0.988781
0.913606
0.913606
0
0
0.98987
0.98987
0
0
0.98987
1
0
0
0.884791
0.884791
1
0.884791
0.76007
1
0.791115
1
0.992479
0.992479
0.791115
0.789771
0
0.792847
0.992479
0.789771
1
0
1
0.805164
0.805164
0.923744
1
0
0.805164
0.923744
0.857168
1
0.807453
1
0.668368
0.668368
1
0.985832
0.985832
0.758943
0
0.985832
1
0
0
0
1
1
0
0
1
0.844079
1
0.978697
0.978697
0.991852
0.991852
0.991852
1
0.965773
0.978697
0.991852
1
1
1
0
0.965773
0.891919
1
1
0
1
1
0.78135
0
0
1
0.818764
0
0
0.856956
1
0.807593
0.807593
0
0
0
0.703369
1
0
0.703369
0
1
1
1
1
1
0
1
0
1
0.964591
0
0.709178
0.966599
0.966599
0.79419
0.766354
0.766354
0.709178
0.966599
0.79419
1
0.695531
0.786727
0.786727
0
0
0.695531
0
0
1
0.993744
0.993744
0.997496
0.997496
0
0.777461
0.777461
0.00888692
0.993744
0.997496
0.799698
0.799698
0
0.877786
1
0.934139
0.934139
0.858791
0.751266
0.751266
0.998382
0.934139
1
0.751266
0.65133
0.701926
0.371974
0.354554
0.371206
0.364064
0.368967
0.383499
0.370026
0.350908
0.35539
0.374086
0.385103
0.378791
0.357407
0.347291
0.358871
0.350624
0.360203
0.357101
0.376511
0.374967
0.371676
0.370319
0.365403
0.351901
0.35573
0.37759
0.380368
0.379918
0.371855
0.358061
0.364357
0.36877
0.358302
0.356772
0.383589
0.370985
0.368872
0.353196
0.360149
0.348091
0.379911
0.360171
0.366584
0.35514
0.350916
0.367823
0.361415
0.3677
0.382185
0.368874
0.361542
0.362969
0.358129
0.379501
0.364067
0.360728
0.372231
0.381759
0.363863
0.353036
0.378676
0.356771
0.359075
0.359353
0.349486
0.373465
0.380957
0.364188
0.354365
0.347396
0.362329
0.370574
0.371045
0.386211
0.360703
0.347299
0.369108
0.372399
0.353286
0.365867
0.362625
0.378243
0.356496
0.367693
0.377187
0.360851
0.352064
0.371599
0.354802
0.36233
0.387548
0.382406
0.355208
0.363643
0.359223
0.364983
0.378932
0.358796
0.365365
0.354026
0.365931
0.361071
0.370228
0.36723
0.352212
0.371922
0.363551
0.386004
0.357931
0.387182
0.36934
0.366421
0.368637
0.370625
0.35772
0.385072
0.358002
0.356943
0.366884
0.374727
0.360432
0.366927
0.374427
0.36048
0.376778
0.355344
0.360101
0.358348
0.390303
0.362629
0.356708
0.383681
0.372189
0.359231
0.379288
0.363955
0.365884
0.382948
0.368168
0.354023
0.372866
0.372064
0.376568
0.371763
0.361577
0.365104
0.364507
0.367692
0.357908
0.37049
0.349777
0.384449
0.367479
0.351512
0.360995
0.364201
0.369834
0.368542
0.363484
0.365427
0.378886
0.359625
0.356613
0.372363
0.365229
0.384678
0.355989
0.333981
0.376585
0.367189
0.357788
0.364424
0.362163
0.37269
0.366907
0.381804
0.372006
0.34547
0.37065
0.371981
0.370585
0.360634
0.372967
0.368597
0.362185
0.352836
0.361836
0.37447
0.366859
0.346349
0.36924
0.355149
0.347808
0.382137
0.384484
0.359791
0.333431
0.361104
0.383851
0.370871
0.360133
0.364916
0.37213
0.367736
0.349285
0.363456
0.351015
0.366637
0.36708
0.364271
0.385904
0.362011
0.349855
0.375292
0.368611
0.377291
0.375504
0.349727
0.349799
0.358385
0.399371
0.376071
0.357442
0.361626
0.379558
0.379616
0.375944
0.363132
0.378572
0.377493
0.36483
0.35565
0.366042
0.36879
0.366215
0.355151
0.354514
0.359699
0.397961
0.375503
0.350913
0.341108
0.360467
0.371919
0.377825
0.359929
0.368419
0.362813
0.370236
0.375598
0.365452
0.366382
0.353419
0.353564
0.35893
0.381317
0.365333
0.367219
0.376116
0.371928
0.380696
0.364811
0.371344
0.359048
0.361296
0.359995
0.380574
0.375107
0.35641
0.373365
0.369221
0.36713
0.349764
0.360792
0.356795
0.371697
0.36665
0.370331
0.365714
0.359708
0.37727
0.374857
0.370249
0.378058
0.388775
0.369281
0.363274
0.363563
0.374872
0.350462
0.365944
0.371678
0.363512
0.370049
0.379664
0.378534
0.353112
0.36125
0.358075
0.356392
0.366094
0.380116
0.381364
0.358079
0.373194
0.363758
0.361622
0.368402
0.381516
0.360513
0.335213
0.371795
0.382097
0.392368
0.364993
0.355165
0.36488
0.379062
0.391776
0.370605
0.349523
0.341453
0.359609
0.379667
0.375612
0.357551
0.355969
0.364906
0.360785
0.377454
0.356964
0.358774
0.358114
0.37597
0.371697
0.358355
0.367009
0.361257
0.360767
0.366548
0.365555
0.38195
0.376562
0.363645
0.367913
0.366351
0.342409
0.366514
0.372883
0.362812
0.360193
0.355066
0.358701
0.356467
0.367787
0.377749
0.385994
0.364448
0.351381
0.369906
0.355093
0.370363
0.364886
0.358985
0.365568
0.356158
0.357546
0.350234
0.371939
0.36531
0.349948
0.359158
0.371361
0.377084
0.374588
0.362609
0.36822
0.376249
0.343959
0.369575
0.35873
0.359352
0.367782
0.363396
0.356358
0.355007
0.354214
0.357837
0.370236
0.374267
0.376718
0.383623
0.365136
0.347516
0.337913
0.373332
0.361363
0.363599
0.380931
0.3682
0.369463
0.362862
0.352579
0.366903
0.353761
0.375517
0.391605
0.362276
0.363693
0.375507
0.379102
0.37869
0.356443
0.36704
0.379028
0.359575
0.361472
0.35809
0.362532
0.34954
0.369825
0.35955
0.36834
0.383209
0.361298
0.35952
0.368489
0.368096
0.356518
0.358896
0.372451
0.392624
0.351429
0.380343
0.374875
0.364813
0.350178
0.380355
0.368481
0.348739
0.362848
0.375316
0.354814
0.374578
0.363265
0.373582
0.372463
0.373301
0.372334
0.365505
0.367651
0.369868
0.362094
0.369332
0.370959
0.357297
0.367641
0.368974
0.358865
0.368172
0.379779
0.378811
0.37336
0.362204
0.37134
0.35923
0.354657
0.366681
0.356744
0.375621
0.38333
0.366618
0.365299
0.346336
0.359598
0.369236
0.365378
0.37629
0.36803
0.380574
0.344629
0.353091
0.357464
0.374153
0.393354
0.383977
0.37034
0.353925
0.356533
0.370872
0.375826
0.374306
0.386317
0.375643
0.367347
0.365272
0.379036
0.366643
0.372273
0.358872
0.383651
0.344363
0.351631
0.368897
0.359666
0.367343
0.356858
0.35463
0.351335
0.399105
0.384596
0.353603
0.352088
0.356514
0.36409
0.368975
0.36028
0.359329
0.348782
0.369383
0.38562
0.377408
0.354783
0.349838
0.363038
0.367477
0.376856
0.377849
0.352741
0.377208
0.3746
0.375064
0.3679
0.37076
0.357695
0.35805
0.374101
0.375282
0.356118
0.37343
0.369361
0.360431
0.376086
0.354092
0.363872
0.356524
0.344639
0.371583
0.362994
0.37778
0.365721
0.381902
0.386048
0.357888
0.363736
0.366462
0.366589
0.369469
0.369774
0.363207
0.355276
0.364247
0.347331
0.358325
0.363315
0.364012
0.348726
0.375787
0.379498
0.371492
0.34453
0.353544
0.378684
0.372003
0.371657
0.360935
0.364797
0.367722
0.372187
0.378111
0.366387
0.367324
0.366207
0.352918
0.359303
0.364415
0.355644
0.371844
0.37801
0.353997
0.357905
0.359563
0.392168
0.375963
0.362989
0.356087
0.367432
0.35939
0.357337
0.357423
0.3829
0.362534
0.378591
0.374107
0.379196
0.358141
0.378727
0.36512
0.354402
0.359429
0.373305
0.367979
0.36695
0.378005
0.354107
0.358676
0.390688
0.377177
0.360878
0.368748
0.36339
0.369896
0.358938
0.361143
0.353148
0.37272
0.370985
0.359282
0.376643
0.377882
0.357287
0.366157
0.383843
0.356417
0.356377
0.371002
0.372378
0.363208
0.355086
0.371194
0.374313
0.375009
0.372616
0.369785
0.371402
0.369675
0.380555
0.364301
0.369251
0.364206
0.370375
0.396413
0.369979
0.362155
0.357537
0.352325
0.362917
0.364477
0.370297
0.367438
0.346086
0.368896
0.371524
0.377688
0.359294
0.348592
0.41559
0.3843
0.366633
0.388165
0.371782
0.367315
0.359954
0.371864
0.367042
0.362106
0.360138
0.368441
0.374299
0.370247
0.363643
0.351507
0.356626
0.391212
0.364337
0.360898
0.376527
0.363809
0.365011
0.375449
0.366965
0.357147
0.353925
0.364532
0.344629
0.368464
0.369383
0.373051
0.360288
0.369883
0.365541
0.356462
0.381105
0.37014
0.356598
0.348139
0.371873
0.361245
0.373277
0.371915
0.365772
0.365305
0.392578
0.354385
0.367526
0.381571
0.370324
0.36074
0.366895
0.365568
0.367838
0.358494
0.368859
0.362937
0.349016
0.372761
0.378468
0.376242
0.373045
0.365891
0.369501
0.357257
0.354468
0.359849
0.362731
0.358046
0.397436
0.367402
0.359585
0.360256
0.370681
0.370336
0.361057
0.355688
0.36835
0.362154
0.366492
0.36634
0.382933
0.365434
0.365128
0.378183
0.382843
0.357846
0.350492
0.360195
0.376183
0.361549
0.36029
0.349335
0.384381
0.372465
0.363643
0.364607
0.36736
0.378817
0.350637
0.370273
0.386164
0.365136
0.367255
0.37288
0.367892
0.365178
0.358378
0.356788
0.370015
0.364295
0.372065
0.373258
0.373048
0.369708
0.369484
0.389835
0.359358
0.354001
0.346281
0.351056
0.358443
0.3567
0.357395
0.37404
0.354119
0.369042
0.392032
0.376582
0.344283
0.368945
0.374257
0.360796
0.354018
0.38267
0.361557
0.360966
0.368493
0.375416
0.373707
0.370765
0.359734
0.374777
0.356671
0.344866
0.360051
0.375327
0.374844
0.378962
0.359944
0.358248
0.358198
0.380389
0.348595
0.346798
0.368472
0.366229
0.361381
0.371359
0.384216
0.365622
0.37254
0.374833
0.35674
0.362943
0.38417
0.348501
0.34097
0.373634
0.375055
0.374575
0.375024
0.355821
0.36804
0.371517
0.357038
0.353578
0.352095
0.364413
0.377929
0.376359
0.358711
0.338548
0.347432
0.379609
0.364371
0.362955
0.363063
0.377553
0.368161
0.363918
0.353309
0.366976
0.39206
0.387022
0.365848
0.364975
0.373013
0.384971
0.384366
0.359808
0.36504
0.366359
0.356931
0.3531
0.364418
0.368337
0.359172
0.371277
0.389778
0.379104
0.347796
0.356003
0.358744
0.361228
0.357734
0.372945
0.367147
0.362538
0.364144
0.369409
0.35615
0.360317
0.388479
0.379184
0.353329
0.3603
0.372849
0.351346
0.36664
0.368925
0.37353
0.37038
0.37861
0.362729
0.361172
0.35897
0.358477
0.361828
0.380658
0.381575
0.357957
0.374733
0.369878
0.356813
0.350692
0.368029
0.369158
0.36906
0.361453
0.373119
0.349289
0.342781
0.371026
0.36383
0.353288
0.377352
0.375857
0.355235
0.356268
0.357799
0.379729
0.378842
0.36861
0.358202
0.349798
0.382967
0.36452
0.355479
0.356173
0.371972
0.337885
0.355515
0.371856
0.363155
0.372657
0.358084
0.358906
0.364925
0.36903
0.367329
0.35683
0.372001
0.358254
0.357459
0.347754
0.36311
0.377422
0.37537
0.358407
0.360981
0.369425
0.359813
0.370173
0.367794
0.371069
0.362945
0.362494
0.35237
0.362907
0.377726
0.390086
0.371724
0.35962
0.380068
0.366326
0.357584
0.37365
0.344363
0.359823
0.376106
0.383931
0.351244
0.353726
0.38664
0.37117
0.353655
0.380231
0.359655
0.366701
0.372844
0.353892
0.375189
0.385795
0.354122
0.355579
0.387719
0.370592
0.362049
0.374046
0.354323
0.366342
0.382776
0.378224
0.36734
0.369482
0.370494
0.359761
0.367433
0.371591
0.376138
0.360903
0.379663
0.380447
0.361863
0.359962
0.368084
0.361662
0.373949
0.373795
0.358968
0.371975
0.368075
0.366302
0.355267
0.374146
0.365263
0.364178
0.37354
0.379891
0.354328
0.368196
0.371899
0.364682
0.344781
0.367843
0.359172
0.358483
0.367644
0.364292
0.36479
0.354453
0.370565
0.359478
0.385978
0.369387
0.363645
0.340745
0.367111
0.36624
0.377269
0.373311
0.349497
0.361091
0.373881
0.373612
0.361203
0.362813
0.366247
0.377402
0.365564
0.370857
0.365199
0.36955
0.354494
0.350502
0.359499
0.373217
0.362581
0.333453
0.38448
0.37366
0.364794
0.356282
0.362313
0.370818
0.357905
0.377506
0.386984
0.361435
0.371557
0.366582
0.377719
0.380028
0.368643
0.366693
0.372694
0.369712
0.368451
0.346333
0.381013
0.365981
0.366756
0.37249
0.375067
0.364729
0.37393
0.367376
0.375736
0.371538
0.378782
0.349226
0.35489
0.351022
0.371775
0.385004
0.363361
0.37517
0.342302
0.364433
0.353401
0.363104
0.360137
0.374151
0.365147
0.380188
0.370743
0.357162
0.368747
0.371403
0.369147
0.362579
0.355564
0.358216
0.364874
0.375019
0.360082
0.36749
0.363824
0.377162
0.357629
0.340596
0.365406
0.377545
0.359951
0.36658
0.379241
0.355788
0.355692
0.378298
0.353476
0.355605
0.368031
0.39733
0.367358
0.367622
0.362826
0.366681
0.342759
0.368284
0.373478
0.376414
0.386514
0.348396
0.350002
0.361639
0.361807
0.359435
0.364795
0.357185
0.366112
0.362721
0.381991
0.381967
0.37461
0.367071
0.3582
0.366152
0.359359
0.363223
0.3609
0.369896
0.34695
0.359434
0.369014
0.367961
0.385876
0.38
0.35638
0.369333
0.389477
0.381061
0.363138
0.371072
0.366148
0.372226
0.364017
0.376589
0.374358
0.352294
0.376406
0.359637
0.37586
0.359653
0.350868
0.380764
0.351694
0.36242
0.348555
0.367354
0.372594
0.372015
0.37104
0.360777
0.372217
0.383811
0.379071
0.369821
0.354428
0.3624
0.359187
0.386952
0.364314
0.373016
0.358609
0.350487
0.359717
0.352626
0.377563
0.35693
0.375161
0.376815
0.368895
0.355896
0.364672
0.382292
0.364222
0.356339
0.382698
0.361823
0.362136
0.37723
0.375805
0.365709
0.36937
0.380628
0.365566
0.364196
0.357845
0.367441
0.361338
0.384849
0.350289
0.33169
0.375622
0.38088
0.370216
0.355411
0.379542
0.366778
0.372129
0.373062
0.348745
0.369021
0.378313
0.369269
0.355336
0.387038
0.351772
0.348802
0.361731
0.3718
0.369972
0.392482
0.37835
0.351592
0.345649
0.368167
0.374211
0.36012
0.385719
0.362315
0.368232
0.37416
0.368091
0.383073
0.382835
0.34478
0.357988
0.369491
0.367402
0.360156
0.355302
0.369244
0.368991
0.350715
0.359422
0.373353
0.383317
0.360085
0.35538
0.371039
0.362309
0.366539
0.352834
0.354912
0.351077
0.379383
0.385027
0.360888
0.38768
0.376878
0.384016
0.359999
0.36582
0.367989
0.360429
0.366015
0.353987
0.366904
0.372641
0.365157
0.363304
0.352829
0.368469
0.363939
0.371302
0.368788
0.372057
0.363684
0.356715
0.361902
0.373866
0.371851
0.371777
0.36873
0.359099
0.348964
0.372732
0.362616
0.377454
0.372811
0.344149
0.362033
0.368789
0.371974
SCALARS Coverage1 float 1
LOOKUP_TABLE default
0.184064
0.184064
0.181093
0.182938
0.16596
0.178486
0.182034
0.18327
0.173411
0.173411
0.151105
0.160731
0.182251
0.161406
0.193487
0.188642
0.176539
0.184364
0.182092
0.174834
0.181925
0.160657
0.156716
0.177924
0.159398
0.163665
0.170344
0.179559
0.172704
0.167371
0.194632
0.18125
0.188034
0.202063
0.196654
0.199817
0.203405
0.213549
0.21686
0.200515
0.191613
0.171832
0.179663
0.169504
0.189091
0.182853
0.195802
0.184259
0.17669
0.182929
0.198175
0.175407
0.179951
0.184755
0.198366
0.179149
0.195484
0.181948
0.227088
0.206033
0.181573
0.159915
0.168346
0.197167
0.214942
0.200052
0.189874
0.20112
0.189844
0.180207
0.187426
0.176837
0.184037
0.186271
0.184171
0.183774
0.181965
0.170456
0.193341
0.182497
0.183277
0.196358
0.201119
0.193707
0.204172
0.201556
0.207114
0.203286
0.195805
0.171881
0.171556
0.179938
0.19464
0.199985
0.194672
0.183763
0.184705
0.171523
0.17563
0.178608
0.178608
0.185189
0.185189
0.185189
0.179965
0.179965
0.17817
0.171196
0.189474
0.188846
0.193117
0.19535
0.193498
0.175892
0.202821
0.201095
0.18173
0.197484
0.201678
0.195279
0.184182
0.171844
0.174257
0.171269
0.175905
0.177128
0.183379
0.190887
0.192745
0.180086
0.188527
0.181064
0.181765
0.175817
0.18057
0.176704
0.171263
0.164279
0.180402
0.175958
0.175398
0.209347
0.173411
0.184021
0.183969
0.169806
0.189997
0.199339
0.192788
0.175095
0.196113
0.171431
0.194368
0.210574
0.180054
0.187027
0.198378
0.188386
0.176023
0.167138
0.187541
0.187786
0.198786
0.178984
0.186829
0.176865
0.182589
0.189312
0.178832
0.189799
0.191682
0.199513
0.198825
0.199122
0.182428
0.204386
0.226262
0.222372
0.17943
0.176992
0.175873
0.167302
0.205559
0.167219
0.166104
0.182193
0.168197
0.168456
0.196425
0.187974
0.197084
0.183268
0.172289
0.174159
0.191027
0.187116
0.182428
0.178761
0.183853
0.190008
0.213079
0.184972
0.175539
0.193295
0.187945
0.194897
0.200084
0.212824
0.208339
0.188503
0.179125
0.171573
0.177662
0.216712
0.19988
0.205984
0.198637
0.190808
0.16
0.16
0.187346
0.187346
0.20005
0.178019
0.182532
0.195445
0.179438