# vtk DataFile Version 2.0
2D Surface
ASCII
DATASET UNSTRUCTURED_GRID
POINTS 3757 float
7.07022e-05 -5.733e-05 0. 
7.074e-05 -5.7333e-05 0. 
7.083e-05 -5.73319e-05 0. 
7.092e-05 -5.73344e-05 0. 
7.101e-05 -5.73344e-05 0. 
7.1092e-05 -5.733e-05 0. 
7.13179e-05 -5.733e-05 0. 
7.137e-05 -5.73346e-05 0. 
7.146e-05 -5.73306e-05 0. 
7.155e-05 -5.73338e-05 0. 
7.164e-05 -5.73372e-05 0. 
7.173e-05 -5.73378e-05 0. 
7.182e-05 -5.7336e-05 0. 
7.191e-05 -5.7334e-05 0. 
7.2e-05 -5.73468e-05 0. 
7.209e-05 -5.73447e-05 0. 
7.218e-05 -5.73527e-05 0. 
7.227e-05 -5.73541e-05 0. 
7.236e-05 -5.735e-05 0. 
7.245e-05 -5.73536e-05 0. 
7.254e-05 -5.73583e-05 0. 
7.263e-05 -5.73492e-05 0. 
7.272e-05 -5.7345e-05 0. 
7.281e-05 -5.73476e-05 0. 
7.29e-05 -5.73516e-05 0. 
7.299e-05 -5.73427e-05 0. 
7.308e-05 -5.73518e-05 0. 
7.317e-05 -5.73557e-05 0. 
7.326e-05 -5.73549e-05 0. 
7.335e-05 -5.73582e-05 0. 
7.344e-05 -5.73512e-05 0. 
7.353e-05 -5.73519e-05 0. 
7.362e-05 -5.73476e-05 0. 
7.371e-05 -5.7347e-05 0. 
7.38e-05 -5.73485e-05 0. 
7.389e-05 -5.73486e-05 0. 
7.398e-05 -5.73485e-05 0. 
7.407e-05 -5.73518e-05 0. 
7.416e-05 -5.73511e-05 0. 
7.425e-05 -5.73553e-05 0. 
7.434e-05 -5.73554e-05 0. 
7.443e-05 -5.73629e-05 0. 
7.452e-05 -5.73588e-05 0. 
7.461e-05 -5.73593e-05 0. 
7.47e-05 -5.73604e-05 0. 
7.479e-05 -5.73734e-05 0. 
7.488e-05 -5.73717e-05 0. 
7.497e-05 -5.73721e-05 0. 
7.506e-05 -5.73739e-05 0. 
7.515e-05 -5.73701e-05 0. 
7.524e-05 -5.73626e-05 0. 
7.533e-05 -5.73584e-05 0. 
7.542e-05 -5.73592e-05 0. 
7.551e-05 -5.73606e-05 0. 
7.56e-05 -5.73691e-05 0. 
7.569e-05 -5.73725e-05 0. 
7.578e-05 -5.73715e-05 0. 
7.587e-05 -5.73635e-05 0. 
7.596e-05 -5.73657e-05 0. 
7.605e-05 -5.73635e-05 0. 
7.614e-05 -5.73683e-05 0. 
7.623e-05 -5.73718e-05 0. 
7.632e-05 -5.73715e-05 0. 
7.641e-05 -5.73682e-05 0. 
7.65e-05 -5.7366e-05 0. 
7.659e-05 -5.73666e-05 0. 
7.668e-05 -5.73646e-05 0. 
7.677e-05 -5.73637e-05 0. 
7.686e-05 -5.73633e-05 0. 
7.695e-05 -5.7359e-05 0. 
7.704e-05 -5.73597e-05 0. 
7.713e-05 -5.73573e-05 0. 
7.722e-05 -5.73535e-05 0. 
7.731e-05 -5.73487e-05 0. 
7.74e-05 -5.73475e-05 0. 
7.749e-05 -5.73525e-05 0. 
7.758e-05 -5.73496e-05 0. 
7.767e-05 -5.73495e-05 0. 
7.776e-05 -5.73512e-05 0. 
7.785e-05 -5.7348e-05 0. 
7.794e-05 -5.73396e-05 0. 
7.803e-05 -5.73486e-05 0. 
7.812e-05 -5.7349e-05 0. 
7.821e-05 -5.73392e-05 0. 
7.83e-05 -5.73469e-05 0. 
7.839e-05 -5.73513e-05 0. 
7.848e-05 -5.73525e-05 0. 
7.857e-05 -5.73477e-05 0. 
7.866e-05 -5.73465e-05 0. 
7.875e-05 -5.73456e-05 0. 
7.884e-05 -5.7348e-05 0. 
7.893e-05 -5.73482e-05 0. 
7.902e-05 -5.73328e-05 0. 
7.911e-05 -5.733e-05 0. 
7.92e-05 -5.73335e-05 0. 
7.92309e-05 -5.733e-05 0. 
7.93723e-05 -5.733e-05 0. 
7.938e-05 -5.73306e-05 0. 
7.93881e-05 -5.733e-05 0. 
6.74602e-05 -5.724e-05 0. 
6.75e-05 -5.72428e-05 0. 
6.759e-05 -5.72437e-05 0. 
6.768e-05 -5.7249e-05 0. 
6.777e-05 -5.72537e-05 0. 
6.786e-05 -5.72588e-05 0. 
6.795e-05 -5.72623e-05 0. 
6.804e-05 -5.72684e-05 0. 
6.813e-05 -5.72791e-05 0. 
6.822e-05 -5.72819e-05 0. 
6.831e-05 -5.72859e-05 0. 
6.84e-05 -5.72884e-05 0. 
6.849e-05 -5.72887e-05 0. 
6.858e-05 -5.72844e-05 0. 
6.867e-05 -5.7293e-05 0. 
6.876e-05 -5.72936e-05 0. 
6.885e-05 -5.72892e-05 0. 
6.894e-05 -5.72881e-05 0. 
6.903e-05 -5.72887e-05 0. 
6.912e-05 -5.72922e-05 0. 
6.921e-05 -5.72959e-05 0. 
6.93e-05 -5.72994e-05 0. 
6.939e-05 -5.72972e-05 0. 
6.948e-05 -5.72954e-05 0. 
6.957e-05 -5.72958e-05 0. 
6.966e-05 -5.7301e-05 0. 
6.975e-05 -5.73042e-05 0. 
6.984e-05 -5.73103e-05 0. 
6.993e-05 -5.73142e-05 0. 
7.002e-05 -5.73165e-05 0. 
7.011e-05 -5.73149e-05 0. 
7.02e-05 -5.73185e-05 0. 
7.029e-05 -5.73182e-05 0. 
7.038e-05 -5.73182e-05 0. 
7.047e-05 -5.73208e-05 0. 
7.056e-05 -5.73281e-05 0. 
7.065e-05 -5.73258e-05 0. 
7.11e-05 -5.73296e-05 0. 
7.119e-05 -5.73254e-05 0. 
7.128e-05 -5.73266e-05 0. 
7.929e-05 -5.73234e-05 0. 
7.947e-05 -5.73237e-05 0. 
7.956e-05 -5.73254e-05 0. 
7.965e-05 -5.73178e-05 0. 
7.974e-05 -5.73173e-05 0. 
7.983e-05 -5.73182e-05 0. 
7.992e-05 -5.73162e-05 0. 
8.001e-05 -5.7313e-05 0. 
8.01e-05 -5.73059e-05 0. 
8.019e-05 -5.73068e-05 0. 
8.028e-05 -5.73022e-05 0. 
8.037e-05 -5.72997e-05 0. 
8.046e-05 -5.73012e-05 0. 
8.055e-05 -5.7294e-05 0. 
8.064e-05 -5.72829e-05 0. 
8.073e-05 -5.72836e-05 0. 
8.082e-05 -5.72809e-05 0. 
8.091e-05 -5.72751e-05 0. 
8.1e-05 -5.72638e-05 0. 
8.109e-05 -5.72607e-05 0. 
8.118e-05 -5.72625e-05 0. 
8.127e-05 -5.72581e-05 0. 
8.136e-05 -5.72516e-05 0. 
8.145e-05 -5.7256e-05 0. 
8.154e-05 -5.72554e-05 0. 
8.163e-05 -5.72504e-05 0. 
8.172e-05 -5.72436e-05 0. 
8.17969e-05 -5.724e-05 0. 
8.1965e-05 -5.724e-05 0. 
8.199e-05 -5.72405e-05 0. 
8.20763e-05 -5.724e-05 0. 
6.59216e-05 -5.715e-05 0. 
6.597e-05 -5.71533e-05 0. 
6.606e-05 -5.71596e-05 0. 
6.615e-05 -5.71689e-05 0. 
6.624e-05 -5.71725e-05 0. 
6.633e-05 -5.71691e-05 0. 
6.642e-05 -5.71681e-05 0. 
6.651e-05 -5.71684e-05 0. 
6.66e-05 -5.71823e-05 0. 
6.669e-05 -5.7195e-05 0. 
6.678e-05 -5.72062e-05 0. 
6.687e-05 -5.72142e-05 0. 
6.696e-05 -5.72225e-05 0. 
6.705e-05 -5.72283e-05 0. 
6.714e-05 -5.72314e-05 0. 
6.723e-05 -5.72351e-05 0. 
6.732e-05 -5.72386e-05 0. 
6.741e-05 -5.72364e-05 0. 
8.181e-05 -5.72394e-05 0. 
8.19e-05 -5.72387e-05 0. 
8.208e-05 -5.724e-05 0. 
8.217e-05 -5.72309e-05 0. 
8.226e-05 -5.72262e-05 0. 
8.235e-05 -5.72262e-05 0. 
8.244e-05 -5.72225e-05 0. 
8.253e-05 -5.72118e-05 0. 
8.262e-05 -5.72056e-05 0. 
8.271e-05 -5.72057e-05 0. 
8.28e-05 -5.71993e-05 0. 
8.289e-05 -5.72008e-05 0. 
8.298e-05 -5.72043e-05 0. 
8.307e-05 -5.72014e-05 0. 
8.316e-05 -5.72034e-05 0. 
8.325e-05 -5.71979e-05 0. 
8.334e-05 -5.71961e-05 0. 
8.343e-05 -5.71876e-05 0. 
8.352e-05 -5.71814e-05 0. 
8.361e-05 -5.71737e-05 0. 
8.37e-05 -5.71703e-05 0. 
8.379e-05 -5.71666e-05 0. 
8.388e-05 -5.71725e-05 0. 
8.397e-05 -5.71722e-05 0. 
8.406e-05 -5.71675e-05 0. 
8.415e-05 -5.71676e-05 0. 
8.424e-05 -5.7167e-05 0. 
8.433e-05 -5.71623e-05 0. 
8.44175e-05 -5.715e-05 0. 
8.47781e-05 -5.715e-05 0. 
8.478e-05 -5.71501e-05 0. 
8.47893e-05 -5.715e-05 0. 
6.44843e-05 -5.706e-05 0. 
6.453e-05 -5.70678e-05 0. 
6.462e-05 -5.70678e-05 0. 
6.471e-05 -5.70786e-05 0. 
6.48e-05 -5.70824e-05 0. 
6.489e-05 -5.70892e-05 0. 
6.498e-05 -5.70941e-05 0. 
6.507e-05 -5.70943e-05 0. 
6.516e-05 -5.71046e-05 0. 
6.525e-05 -5.71152e-05 0. 
6.534e-05 -5.71189e-05 0. 
6.543e-05 -5.71242e-05 0. 
6.552e-05 -5.7125e-05 0. 
6.561e-05 -5.71298e-05 0. 
6.57e-05 -5.71332e-05 0. 
6.579e-05 -5.71443e-05 0. 
6.588e-05 -5.71472e-05 0. 
8.442e-05 -5.71496e-05 0. 
8.451e-05 -5.71486e-05 0. 
8.46e-05 -5.71479e-05 0. 
8.469e-05 -5.71455e-05 0. 
8.487e-05 -5.71492e-05 0. 
8.496e-05 -5.71451e-05 0. 
8.505e-05 -5.71388e-05 0. 
8.514e-05 -5.71312e-05 0. 
8.523e-05 -5.71237e-05 0. 
8.532e-05 -5.71185e-05 0. 
8.541e-05 -5.71075e-05 0. 
8.55e-05 -5.71019e-05 0. 
8.559e-05 -5.70953e-05 0. 
8.568e-05 -5.70935e-05 0. 
8.577e-05 -5.70858e-05 0. 
8.586e-05 -5.70704e-05 0. 
8.59433e-05 -5.706e-05 0. 
6.34039e-05 -5.697e-05 0. 
6.345e-05 -5.69765e-05 0. 
6.354e-05 -5.69895e-05 0. 
6.363e-05 -5.70031e-05 0. 
6.372e-05 -5.7015e-05 0. 
6.381e-05 -5.70276e-05 0. 
6.39e-05 -5.70337e-05 0. 
6.399e-05 -5.70367e-05 0. 
6.408e-05 -5.70409e-05 0. 
6.417e-05 -5.70471e-05 0. 
6.426e-05 -5.70501e-05 0. 
6.435e-05 -5.70517e-05 0. 
6.444e-05 -5.70524e-05 0. 
8.595e-05 -5.70592e-05 0. 
8.604e-05 -5.70492e-05 0. 
8.613e-05 -5.70442e-05 0. 
8.622e-05 -5.70353e-05 0. 
8.631e-05 -5.70234e-05 0. 
8.64e-05 -5.70133e-05 0. 
8.649e-05 -5.70035e-05 0. 
8.658e-05 -5.69891e-05 0. 
8.667e-05 -5.69753e-05 0. 
8.67004e-05 -5.697e-05 0. 
6.28544e-05 -5.688e-05 0. 
6.291e-05 -5.68919e-05 0. 
6.3e-05 -5.69108e-05 0. 
6.309e-05 -5.69252e-05 0. 
6.318e-05 -5.69362e-05 0. 
6.327e-05 -5.69497e-05 0. 
6.336e-05 -5.69638e-05 0. 
8.676e-05 -5.69595e-05 0. 
8.685e-05 -5.69394e-05 0. 
8.694e-05 -5.69253e-05 0. 
8.703e-05 -5.69112e-05 0. 
8.712e-05 -5.68855e-05 0. 
8.71392e-05 -5.688e-05 0. 
6.25188e-05 -5.679e-05 0. 
6.255e-05 -5.67992e-05 0. 
6.264e-05 -5.68305e-05 0. 
6.273e-05 -5.68505e-05 0. 
6.282e-05 -5.68726e-05 0. 
8.721e-05 -5.68596e-05 0. 
8.73e-05 -5.68332e-05 0. 
8.739e-05 -5.68161e-05 0. 
8.748e-05 -5.679e-05 0. 
8.74801e-05 -5.679e-05 0. 
6.22683e-05 -5.67e-05 0. 
6.228e-05 -5.67111e-05 0. 
6.237e-05 -5.67322e-05 0. 
6.246e-05 -5.67726e-05 0. 
8.757e-05 -5.67615e-05 0. 
8.766e-05 -5.67199e-05 0. 
8.77157e-05 -5.67e-05 0. 
6.21742e-05 -5.661e-05 0. 
6.219e-05 -5.66258e-05 0. 
8.775e-05 -5.66876e-05 0. 
8.78267e-05 -5.661e-05 0. 
6.21212e-05 -5.652e-05 0. 
8.784e-05 -5.65868e-05 0. 
8.78783e-05 -5.652e-05 0. 
6.21083e-05 -5.643e-05 0. 
8.7887e-05 -5.643e-05 0. 
6.21049e-05 -5.634e-05 0. 
8.78907e-05 -5.634e-05 0. 
6.21033e-05 -5.625e-05 0. 
8.78909e-05 -5.625e-05 0. 
6.2102e-05 -5.616e-05 0. 
8.78903e-05 -5.616e-05 0. 
6.2102e-05 -5.607e-05 0. 
8.78886e-05 -5.607e-05 0. 
6.20943e-05 -5.598e-05 0. 
6.21e-05 -5.6047e-05 0. 
8.78885e-05 -5.598e-05 0. 
6.20963e-05 -5.589e-05 0. 
8.78877e-05 -5.589e-05 0. 
6.20957e-05 -5.58e-05 0. 
8.78896e-05 -5.58e-05 0. 
6.20966e-05 -5.571e-05 0. 
8.78881e-05 -5.571e-05 0. 
6.20961e-05 -5.562e-05 0. 
8.78873e-05 -5.562e-05 0. 
6.20955e-05 -5.553e-05 0. 
8.78865e-05 -5.553e-05 0. 
6.20945e-05 -5.544e-05 0. 
8.7887e-05 -5.544e-05 0. 
6.209e-05 -5.535e-05 0. 
8.78868e-05 -5.535e-05 0. 
6.2088e-05 -5.526e-05 0. 
8.78841e-05 -5.526e-05 0. 
6.20874e-05 -5.517e-05 0. 
8.78861e-05 -5.517e-05 0. 
6.20868e-05 -5.508e-05 0. 
8.78846e-05 -5.508e-05 0. 
6.20871e-05 -5.499e-05 0. 
8.78865e-05 -5.499e-05 0. 
6.20872e-05 -5.49e-05 0. 
8.78878e-05 -5.49e-05 0. 
6.20851e-05 -5.481e-05 0. 
8.78882e-05 -5.481e-05 0. 
6.20833e-05 -5.472e-05 0. 
8.78871e-05 -5.472e-05 0. 
6.20831e-05 -5.463e-05 0. 
8.78853e-05 -5.463e-05 0. 
6.2083e-05 -5.454e-05 0. 
8.78841e-05 -5.454e-05 0. 
6.20825e-05 -5.445e-05 0. 
8.78886e-05 -5.445e-05 0. 
6.20822e-05 -5.436e-05 0. 
8.78871e-05 -5.436e-05 0. 
6.20826e-05 -5.427e-05 0. 
8.78858e-05 -5.427e-05 0. 
6.20802e-05 -5.418e-05 0. 
8.78869e-05 -5.418e-05 0. 
6.20799e-05 -5.409e-05 0. 
8.78904e-05 -5.409e-05 0. 
6.20802e-05 -5.4e-05 0. 
[...]
POINT_DATA 3757
SCALARS Coverage0 float 1
LOOKUP_TABLE default
0.153885
0.153885
0.147236
0.169572
0.174494
0.167319
0.163178
0.163649
0.158257
0.167863
0.166225
0.162737
0.149301
0.172947
0.174109
0.158978
0.171705
0.173278
0.185267
0.161789
0.148876
0.156072
0.160824
0.155738
0.14564
0.159296
0.166826
0.147189
0.155475
0.159617
0.152661
0.154144
0.176297
0.158243
0.158437
0.133533
0.150253
0.142841
0.155043
0.169772
0.182862
0.157629
0.159799
0.158817
0.152465
0.154774
0.136811
0.176581
0.169974
0.160715
0.143841
0.158562
0.169877
0.170032
0.147879
0.134059
0.152049
0.138647
0.135497
0.158036
0.175214
0.13844
0.14453
0.15818
0.140003
0.12984
0.150221
0.175611
0.167358
0.154212
0.15527
0.172492
0.159384
0.158384
0.161354
0.169997
0.174488
0.170093
0.136798
0.146207
0.178752
0.16624
0.157029
0.173466
0.195662
0.169859
0.145385
0.163331
0.156319
0.151997
0.159073
0.17318
0.173114
0.155846
0.163975
0.163975
0.148276
0.148276
0.148276
0.149094
0.149094
0.142867
0.162191
0.142379
0.143575
0.135656
0.149863
0.161224
0.147698
0.15652
0.154743
0.141479
0.158513
0.162438
0.15517
0.162577
0.123103
0.134822
0.16209
0.158526
0.180409
0.187161
0.166921
0.167792
0.144663
0.156596
0.157519
0.16669
0.167087
0.155393
0.156078
0.183341
0.153156
0.143301
0.152304
0.174847
0.167319
0.1811
0.163178
0.155142
0.139245
0.164298
0.191084
0.170713
0.154696
0.157108
0.153546
0.147023
0.148623
0.168582
0.145797
0.165478
0.171781
0.165885
0.164625
0.167933
0.164272
0.151856
0.165106
0.156974
0.172761
0.17368
0.163454
0.157294
0.136471
0.158364
0.168336
0.167618
0.167618
0.174232
0.152265
0.172382
0.163839
0.153632
0.161141
0.14982
0.164656
0.184362
0.180142
0.159037
0.158708
0.158371
0.151161
0.16557
0.158196
0.13992
0.153198
0.15453
0.168336
0.174522
0.174232
0.164491
0.151334
0.157013
0.149886
0.151826
0.161265
0.159254
0.182376
0.171244
0.175857
0.169163
0.147128
0.156619
0.165046
0.158958
0.157168
0.16258
0.144017
0.148115
0.157436
0.17439
0.186906
0.176852
0.160856
0.168548
0.174723
0.170069
0.170069
0.170069
0.175821
0.156577
0.146141
0.16875
0.162969
0.132858
0.148233
0.176284
0.167266
0.154432
0.161347
0.167708
0.153016
0.155586
0.151606
0.139455
0.152265
0.174723
0.163047
0.166676
0.185984
0.17223
0.183179
0.192027
0.190663
0.163055
0.14021
0.138943
0.180667
0.136965
0.159806
0.189352
0.151655
0.139151
0.160162
0.168762
0.176931
0.166771
0.160194
0.16797
0.132367
0.152851
0.171121
0.169326
0.195905
0.170997
0.175821
0.139151
0.142891
0.174851
0.177658
0.152666
0.152986
0.166814
0.167194
0.161771
0.161771
0.172256
0.157276
0.152755
0.193321
0.200024
0.169537
0.160162
0.185981
0.174957
0.167906
0.148025
0.176506
0.176506
0.221327
0.221327
0.238473
0.167754
0.172256
0.17318
0.183853
0.1993
0.19548
0.19548
0.263487
0.263487
0.207904
0.215439
0.202524
0.202886
0.211594
0.343997
0.343997
0.211594
0.318877
0.50715
0.318877
0.537433
0.754745
0.870016
0.86013
0.946398
0.847282
0.986934
0.953792
0.978878
0.904291
0.919209
0.931464
0.904291
0.974552
0.943028
0.947123
0.884259
0.968796
0.682689
0.966542
0.990066
0.619165
0.960101
0.670229
0.688324
0.688641
0.632021
0.878779
0.794713
0.753444
0.961106
0.468058
0.978332
0.743995
0.977437
0.812821
0.941321
0.767546
0.907065
0.951784
0.92815
0.928764
0.901935
0.978239
0.973733
0.951396
0.995608
0.925892
0.983418
0.897709
0.921252
0.82197
0.824282
0.911972
0.890438
0.72847
0.98484
0.946751
0.964248
0.761676
0.94114
0.494439
0.27
0.646586
0.921365
0.827456
0.84647
0.921998
0.940177
0.808907
0.665683
0.66164
0.497647
0.975716
0.954316
0.985769
0.793191
0.934651
0.878187
0.88408
0.995203
0.752271
0.837568
0.583146
0.68592
0.88747
0.817576
0.843587
0.85652
0.653383
0.863778
0.842991
0.415502
0.810706
0.947814
0.253961
0.965363
0.198588
0.943009
0.925953
0.535176
0.929137
0.653067
0.976359
0.956794
0.970619
0.94191
0.836903
0.985454
0.942472
0.503061
0.970515
0.992871
0.96829
0.996324
0.877431
0.902108
0.758854
0.904305
0.233577
0.856263
0.835869
0.932862
0.934599
0.982654
0.860371
0.974794
0.766605
0.935072
0.801409
0.997545
0.779834
0.888917
0.938236
0.767243
0.520704
0.613713
0.883156
0.895401
0.841108
0.851519
0
0
0.594011
0
0.319375
0.591309
0.920494
0.622228
0.912646
0.806478
0.853337
0.996784
0.834215
0.955415
0.970077
0.449244
0.853599
0.356934
0.872445
0.904035
0.971695
1
0.846425
0.940399
0.826148
0.850344
0.897928
0.943931
0.919356
0.860684
0.874625
0
0.681055
0.903864
0.785869
0.785869
0.815554
0.813834
0.780807
0.939297
0.879716
0.890541
0
0.999878
0
0
0.849016
0
0.996346
0.80088
0.994902
0.689248
0.841128
0.721141
0.90279
0.852286
0.941883
0.844951
0.849928
0.87203
0.822927
0.914598
0.848107
0.933779
0.772907
0.711214
0.804223
0.418268
0.473617
0.902477
0.831685
0.910942
0.919955
0.936136
0
0.773905
1
0
0
0
0.626134
0.981304
0.933969
0.999904
0.925292
0.987232
0.775401
0.828579
0.738144
0.658151
0.834756
0.842031
0.814408
0.793127
0.997548
0.874839
0.911465
0
0.910659
1
0.971436
0.918164
0.809897
0.832763
0
0.951761
0.843915
0.945597
0.84001
0
0.876854
0.839928
0.830154
0.859089
1
0.913471
1
0.835996
0.883433
0.914668
0.753886
0.684875
0.692257
1
0.881741
0.692257
1
0.897888
0.703252
0.863617
0.964098
0.760508
1
0.887458
0.630563
0.963084
0.859827
0.790255
0.790255
0.999592
0.917894
0.790255
0.998776
0.998431
0.902671
0.885589
0.998735
0.929498
0.785654
0.863314
0.673381
0.873221
0.770191
0.895946
0.41718
0.420018
0.728502
0.728502
0.999122
0.629235
0.883121
1
0.917038
0
1
0
0.949745
0
0.696291
1
0
1
1
1
0
1
1
0
0
0.85679
1
0.924615
0.964326
0
0
0.751271
0
0
0.761661
0
1
1
1
1
0.937587
0.97473
0.998829
0.950676
0.857424
0.411429
0.768338
0
0.785976
0.999098
0.713561
0.713561
0.602826
1
0.66155
1
0
0.774972
0.662119
0.662119
0.840964
1
0
0
1
0
1
0
1
1
1
0
0.440317
0
0.69724
0
1
1
0
0
1
1
0
0.830221
1
0
0.830221
1
0
0
0.998858
0.693643
0.693643
1
0
0.980787
1
1
0.766652
0.81543
0.783661
0.926111
0.866247
0
0.926111
0.866247
1
0
0
1
1
0.876802
0.881869
0.876379
0.881869
1
0
0.876379
0
0
1
1
1
0.833522
0
0.790014
0.833522
1
1
0.803493
1
0.701361
0.780795
0.819093
0.701361
0.794842
0
0.787182
0
0.998825
1
0.766405
0.84464
0.84464
0.767497
0.890923
0.84464
0.767497
0.760677
0.829052
0.863717
1
1
1
1
1
0
0.996685
0.996685
1
1
1
0.996685
1
1
1
0
0
0
0
1
1
1
0.900196
0
0.806322
0.806322
1
0
0.723032
0
0.41288
1
0.741399
0.741399
1
1
1
1
0.934446
0.934446
1
1
0.769669
0.769669
0.909336
0.909336
0.769669
0.539147
1
0.67314
0
0
0.80011
0.996682
0.802841
0.853861
1
0
0
0.721511
0
0.982684
0.941754
0.942332
0.941754
1
0.950798
0
0
0.950798
0
0.875
0
0
1
1
1
0
0
0.818983
0.910925
0.685157
0.818983
1
1
0.63393
1
0
0
1
0.764113
1
0.807744
1
1
0.831979
0.641281
0.864109
1
1
0.864109
0.652345
0
0
0
0
0
0
0
0
0
0
0
0
0
0
0
0.874328
0
0
0
1
0
0
0
0
0
0
0
0
0
1
1
1
1
0
0
0
0
0
1
1
1
1
1
1
0.487719
1
0.895676
0.895676
1
1
0.735539
0.735539
0.895676
1
1
0
0
1
0.770917
1
1
1
1
0.758498
0.758498
0
0
0.857605
0
0
0
0
1
0
0.126482
1
0
0.78332
0.78332
1
0
0.843925
0
0.895752
0.314621
0.491773
0.491773
1
1
0.314621
1
1
1
1
0
1
0.946619
0.946619
1
1
0.946619
1
1
0
0.897243
0.897243
1
0
0.970852
0.970852
0.897243
0.722727
0
0
0
0.970852
0.722727
1
0
0.950864
0.950864
1
0
0
0.950864
0.77798
0.77798
1
0.77798
0.823106
0
0.789274
0.789274
0
0.780916
0
0
0
0
0
0.923721
0
0
1
0.855074
0.907202
1
1
0.855074
0.853858
1
1
1
1
1
1
0
0.825084
1
0
0.825084
0
0
0
1
0.984702
0
0
0
0
0.984702
0
0
0.850479
0.850479
1
0.850479
0.957771
1
0.966917
1
1
0.966917
1
1
0
0
0
0.805742
1
0
0
0.805742
1
1
0
0
0.973309
0.973309
1
0.887272
0.973309
1
1
0.847951
1
0.84487
0.951975
0.8967
0.84487
0.951975
0
1
1
0
0
1
1
1
0.994778
0.994778
0
0
1
0.994778
0
0
1
0
0
1
1
0
0
1
0
0.745331
1
1
0
0
0
1
0
0
0
0
0
0
0.923263
0
0.923263
1
1
0
1
0
1
0
0
0
0
0
0.869638
0.869638
1
1
0.869638
0
1
1
1
0
1
1
0
1
1
1
1
0
1
0.920632
0.920632
0
0.80469
0.80469
0.920632
0
0.850894
1
0
0
0
0
0
0
0
0
0
0
0
0
0
0.955465
0.955465
0.751557
0
0
0
0
0.955465
0.751557
0.89138
0
0
0.899912
0
0.899912
0.893295
0
0
1
1
0
0
0
0
1
1
0
0.849021
0.849021
1
0
0
0.785827
0.849021
0.962971
0.962971
0
0
0.800934
0.800934
0.962971
0.783858
0
0
0
0
0
0
0
0
0
1
1
0
1
0
1
1
0
1
0.821764
1
0.674693
0.674693
1
0.762509
1
1
0.954688
0
0.954688
1
0
0
0
0.876136
0
0
0
1
0.876136
1
0
1
0
0
0
1
1
0
0
1
0
0
0
0
1
0
1
0.790937
1
1
0.790937
0.648067
1
0
0
0
0
0
0
1
1
0
0
0.885689
0.885689
1
0
0.832117
0.832117
0.885689
0
0
0.871742
0
0.734654
1
1
1
0
1
0
0
1
1
1
0
0
0
1
0.754805
0.754805
1
1
0.961592
1
1
1
0
0.985453
0.985453
0
0
0
0
0
0
0.768304
0.985453
1
0
0
0.768304
1
0.981233
0
0.981233
0
1
1
0
1
0
1
0
1
1
1
0.607108
1
1
1
1
0
1
1
1
1
1
1
0
0.97576
0.97576
1
0
1
0.97576
1
0
0
0
1
0
0
0.971591
0.971591
0
0.78096
0.788236
0.971591
0
1
0
0.78096
0.98075
0.98075
0
1
0.984402
0.984402
0.98075
0.632148
1
0.875276
0.984402
1
0
0
0
0
0.875276
1
1
0.972144
0.972144
0
1
1
0
0.972144
0
0
0
0
0.976763
0.976763
0
0
0
0
0
0
0.976763
0
0
0
1
0
1
1
1
1
1
1
0
0
1
1
1
0.986058
0.986058
0
1
1
0.986058
0.751989
1
1
1
1
0
0.751989
0
0
0
1
1
1
0.898013
0.898013
0
0.802631
0.802631
0.898013
0
0
0
0
0
0
0
0.993489
0.993489
0
0.423589
0.993489
0
0
0
0
0
0.423589
0
1
0
0
0.684027
0.684027
0
0
0.857797
0.684027
0
0.775438
1
0.743428
1
1
0.743428
0
1
1
1
0
0
0
0
1
0
0.831808
0.831808
0
0.755013
0.755013
0.9392
0
0
0
1
0.755013
0.9392
0
0
1
0
0
1
0
1
1
0
1
0
0.952536
0.952536
1
1
0
1
0.952536
1
0
1
1
1
0
1
1
1
0
0
0
1
0
0
0
0
0.817548
0.817548
0
0.951589
0.951589
0
0
0.808559
0.808559
0.951589
0.694593
0.701321
0.895073
0.808559
0.701321
1
1
0
1
0
0
0
1
1
0
0
0.806042
0.806042
0.826741
0
0.921168
0
0
0.921168
1
1
1
0
1
0
1
1
1
0
1
0
1
0
0
1
0
1
1
1
0
1
0
0
1
1
1
0
1
0.818395
1
0.836991
0.836991
1
1
0
1
1
1
0
0
0
0
0
0
0
1
0
0
0.882887
0.882887
0
1
1
0.882887
0.767836
0.830625
1
0.830625
0
0
1
1
1
0.899278
0.899278
1
0
0.883079
0.899278
0.758992
0.883967
0.883079
0.758992
0.720195
0.746976
0
0
0
0
0
1
0.746976
0
0.982923
0.982923
0
0.982923
0.806774
0
0.887956
0
0.887956
0
0
0
0
0
0
0
0
0
1
0
0
0
0
0
0
1
0
1
0
1
0.996633
1
0.996633
0
1
0
0
0
0
0
1
1
0
0.989982
0.989982
1
0
1
1
0.680345
0.704108
0.989982
0
0
0
1
0
0
0
0
1
0.827034
0.827034
0.872145
0
0.878109
0.827034
0.872145
1
0
1
0
1
1
1
0
0
0
0
1
0
1
0
0
0
0
1
0
0.983007
0.983007
0
1
0.983267
0.983267
0.983007
1
0
0
0.683635
0.683635
0.983267
1
1
0
0.750542
0.750542
0.969433
0.969433
0.790738
0.750542
0.969433
1
1
1
0.784078
0
0
1
1
1
0.784078
0.67819
1
0.67819
0
0
1
0
1
0
0
0
0.996234
0.996234
0
1
0
0
0
0
0.996234
0
0.605074
0.948672
0.605074
1
1
1
1
0.948672
0
1
1
0.982252
0.982252
0
0
0
1
1
0.982252
0.670342
0
0
0.657023
0.657023
0
0
0
1
1
0
0.993371
0.993371
1
0
0
0.993371
1
1
0
0.504014
0.504014
1
0
0.776009
0.504014
1
1
1
0
0
0
1
0
1
0
0.995896
0.995896
0.831782
0
0
1
0.995896
0
0
0
1
1
0
0
0.806161
0.806161
1
1
1
1
1
0.806161
1
1
1
1
0
1
1
1
1
0
0.963676
0.963676
0
0
0.963676
0.570738
0
1
0.570738
1
1
1
0
0.964934
0.964934
1
0.782351
0.782351
0.964934
0
1
0
0
0.876946
0
1
1
1
0.876946
0
1
0
1
1
0
0
0.696562
0
0
0.791921
0.791921
0
0
1
1
0
0.968228
0.968228
0
0
0.968228
1
0
0
1
0
0
0
0.951356
0.939057
0.939057
0
0.713643
0.713643
0.951356
0.939057
0
0
0.843102
0.843102
1
1
1
0.785289
0.843102
0.868082
0.868082
0
0
0
1
1
0
1
1
0
1
0
0.755984
1
0.725131
0.725131
0
0
0
1
0
0
0
1
1
0
0
0
1
0
0
1
1
0.841794
0.841794
0
0
0.767004
0.841794
0.888179
1
0.767004
0.888179
1
1
1
0.889974
0
0
0.889974
0
1
0.956249
0.956249
1
0.873264
0.956249
1
1
0.777408
1
1
0.741874
0.741874
1
0
1
1
0
1
0
1
1
0
1
1
1
1
1
1
1
0
0.933712
0.933712
1
0
0.933712
0.441617
0.814257
0
0
0
0
0
0.985934
0.985934
0.752828
0.752828
0
1
0
0
0
0.339931
0.985934
0.752828
0
0
0
0
1
1
1
1
0
1
0
0
0
0
1
0
0
1
0
1
0
0
1
0.660776
1
1
1
0.646915
0.646915
1
1
1
0
0
0.742057
0
0.742057
0.973006
0.973006
1
0.806369
0
0.973006
0
0
1
1
1
0
0
0
0.91121
0
0
0
0
0
0
0.989619
0.989619
0
0
0.989619
0.981636
1
0.844411
0
0.87018
0.87018
0
0
1
1
1
1
0.925381
0.925381
1
0
0
0
1
0.925381
0
1
1
0.9868
0.9868
0
0
1
1
0.9868
0.449756
1
0
0.98551
0.98551
0.449756
0
1
1
1
0
0
0.98551
0
0
0
0
0
0
1
0
0
1
1
0
0
1
1
1
0.826896
0
0
0
0
0
0.826896
1
1
0
1
1
0
0
1
0
0
0.86863
0.86863
0.996433
0
1
0.86863
0.996433
0.845356
0.845356
0
0
1
0
0
1
0
0
0
0
0
0
0.979459
0.979459
0
0
0
0.763141
0.979459
0
0
0
1
1
0
0.830751
0
0
0.862536
0
0
0.840653
0.840653
0
0
1
0
0
1
0
1
0.988324
0.988324
0.578599
0
1
0.928063
0.928063
0.988324
0.578599
0.797745
0.797745
1
0.837442
0.928063
1
1
0
1
0.996785
0.996785
1
1
0
0.996785
1
0
1
0
0
1
0
0
1
0.722972
0.722972
0.919802
0.919802
0
0.722972
0.919802
0.804904
0
0
0
1
1
0
0
0.969992
0.969992
1
1
0.993778
0.993778
0.969992
0.829186
1
0.729912
0.993778
1
1
1
1
0
0.729912
1
1
1
1
0
0.966098
1
1
0.722074
0.722074
0
0
1
1
1
0
0
0.978854
0.978854
1
1
0.978854
0
0
0
0
0.84388
1
0
0.84388
0.705849
1
1
1
0
1
0
0.847076
0.847076
0.639324
0
0.822522
0.889999
0.889999
0.847076
0.639324
0.639275
0.639275
0.743653
0.743653
0.822522
0.889999
0.843451
0.820597
0.793787
0.793787
0
0
0.820597
0
0
1
0.553829
0.553829
0.960252
0.960252
0
0.701812
0.701812
0.024223
0.553829
0.960252
0.88432
0.88432
0
0.875027
1
0.968922
0.968922
0.830977
0.72643
0.72643
0.326732
0.968922
1
0.72643
0.549326
0.724496
0.376836
0.372246
0.355223
0.360507
0.357902
0.363934
0.394001
0.356858
0.349892
0.357758
0.362059
0.381867
0.364952
0.357055
0.351335
0.361519
0.381583
0.383695
0.368068
0.354258
0.374517
0.363639
0.380629
0.371006
0.354053
0.349422
0.351263
0.359972
0.371677
0.381576
0.348486
0.381268
0.351214
0.365104
0.374024
0.354415
0.363539
0.375166
0.386282
0.383963
0.362665
0.350152
0.368521
0.368123
0.35048
0.378671
0.358349
0.347682
0.3629
0.37802
0.376489
0.365116
0.36921
0.367593
0.376788
0.367261
0.356463
0.34959
0.372442
0.385487
0.37015
0.359372
0.374917
0.375566
0.380148
0.370984
0.364764
0.360194
0.355899
0.364256
0.383813
0.373374
0.357658
0.349419
0.367943
0.363371
0.369198
0.385714
0.338753
0.368297
0.37682
0.371754
0.366234
0.364018
0.362589
0.367848
0.37722
0.369052
0.345367
0.358097
0.378379
0.361801
0.3583
0.365978
0.369544
0.370569
0.357672
0.368634
0.360129
0.384114
0.363668
0.359378
0.371102
0.373827
0.361113
0.369059
0.366274
0.372186
0.38267
0.364004
0.351309
0.389065
0.378762
0.365027
0.374581
0.367572
0.357757
0.345755
0.359549
0.383582
0.385255
0.350304
0.361358
0.373903
0.362872
0.34704
0.357896
0.376075
0.361481
0.357188
0.342646
0.381049
0.371658
0.362849
0.352938
0.371341
0.384732
0.375422
0.38128
0.381863
0.360173
0.360552
0.362893
0.362664
0.376656
0.36499
0.340531
0.372222
0.378214
0.359293
0.357625
0.382208
0.36202
0.356681
0.351545
0.343517
0.374346
0.371519
0.351345
0.3715
0.365704
0.373604
0.35812
0.350139
0.369591
0.372274
0.357951
0.374691
0.375593
0.381695
0.368704
0.358298
0.37105
0.363828
0.364339
0.36906
0.373302
0.358558
0.370377
0.373195
0.350194
0.360585
0.36804
0.371852
0.34923
0.370062
0.367971
0.372897
0.367208
0.367622
0.355884
0.373798
0.34689
0.365294
0.38213
0.369665
0.35875
0.362368
0.373005
0.353551
0.379797
0.369053
0.367456
0.374763
0.371235
0.372003
0.363394
0.377988
0.35547
0.368383
0.364233
0.377815
0.353742
0.343422
0.369764
0.369074
0.394052
0.375469
0.361428
0.376584
0.363467
0.372886
0.350593
0.362765
0.355305
0.346032
0.348717
0.370154
0.377782
0.378329
0.375953
0.347517
0.366527
0.356293
0.37348
0.363204
0.35823
0.373714
0.349584
0.367228
0.361787
0.365747
0.393625
0.352493
0.371775
0.390719
0.377742
0.375812
0.358832
0.370592
0.356464
0.361273
0.370406
0.361489
0.335247
0.374179
0.390004
0.376866
0.36762
0.346901
0.357933
0.38944
0.370883
0.355392
0.369898
0.366988
0.37751
0.380445
0.376241
0.356067
0.359919
0.341754
0.36231
0.369675
0.364877
0.359517
0.355985
0.387965
0.399796
0.374362
0.354836
0.358407
0.364107
0.366611
0.357417
0.371125
0.376738
0.365415
0.347315
0.347691
0.35722
0.367628
0.389552
0.374759
0.372018
0.347675
0.36178
0.384289
0.384535
0.367733
0.359574
0.364882
0.359753
0.370893
0.374105
0.367703
0.359653
0.356776
0.372109
0.389724
0.356553
0.35853
0.354462
0.373849
0.354635
0.374962
0.371658
0.372645
0.371542
0.385031
0.389192
0.363678
0.355307
0.350576
0.366746
0.375898
0.375841
0.362394
0.363049
0.384784
0.35141
0.355408
0.377052
0.370649
0.355871
0.360582
0.353451
0.365758
0.360258
0.367681
0.370427
0.361169
0.365965
0.362771
0.366829
0.367247
0.374306
0.372313
0.384484
0.362902
0.361473
0.356818
0.360066
0.371683
0.371191
0.353072
0.377894
0.352692
0.378235
0.367683
0.379493
0.382301
0.373586
0.364406
0.355424
0.358005
0.357704
0.365501
0.358818
0.349976
0.356734
0.376881
0.345285
0.371257
0.360025
0.360965
0.376417
0.37658
0.377623
0.367568
0.355449
0.369856
0.360602
0.364518
0.359586
0.37328
0.380355
0.363537
0.366409
0.369398
0.34591
0.356926
0.347138
0.366452
0.372772
0.37451
0.350179
0.362587
0.362672
0.359754
0.375631
0.36271
0.374997
0.357275
0.348429
0.377841
0.355519
0.38234
0.354743
0.366712
0.355082
0.367303
0.36623
0.34994
0.357854
0.363427
0.372795
0.37446
0.364483
0.371566
0.374334
0.363922
0.374921
0.376703
0.365323
0.35945
0.36789
0.346634
0.368257
0.35379
0.356142
0.354022
0.368432
0.369818
0.356898
0.390039
0.375873
0.366141
0.361869
0.368515
0.365885
0.370849
0.375231
0.372554
0.392258
0.36276
0.356063
0.364631
0.354469
0.352608
0.36089
0.356845
0.347939
0.371518
0.385216
0.382497
0.353729
0.366363
0.368146
0.355265
0.355262
0.368087
0.364681
0.383546
0.360017
0.37083
0.377948
0.368013
0.343768
0.370591
0.369676
0.364472
0.364611
0.367464
0.366356
0.365036
0.376076
0.35262
0.353473
0.353883
0.372103
0.368337
0.341709
0.378997
0.379313
0.369094
0.35318
0.363675
0.370636
0.368365
0.354028
0.355818
0.35479
0.373523
0.385653
0.370928
0.365044
0.346564
0.363386
0.360858
0.367762
0.369591
0.357983
0.362739
0.368572
0.38526
0.382078
0.339416
0.36726
0.368598
0.38376
0.366248
0.371365
0.359584
0.382418
0.370028
0.363155
0.364891
0.361069
0.352989
0.374264
0.386828
0.362923
0.370002
0.358307
0.358331
0.377982
0.367462
0.358542
0.355949
0.380243
0.376302
0.375296
0.368464
0.370221
0.355969
0.352752
0.352136
0.365982
0.372691
0.387745
0.368965
0.354376
0.358618
0.347426
0.371052
0.353351
0.376863
0.377849
0.357122
0.365315
0.355242
0.368847
0.392449
0.369902
0.354602
0.353359
0.362065
0.361882
0.367631
0.370647
0.358677
0.370729
0.365613
0.362307
0.372475
0.362384
0.370793
0.381604
0.366071
0.354476
0.379398
0.366879
0.353637
0.388238
0.369027
0.36011
0.36869
0.344953
0.359358
0.3653
0.363722
0.366348
0.371518
0.377378
0.383213
0.351916
0.382236
0.352934
0.345436
0.366103
0.372513
0.362981
0.381446
0.365483
0.366814
0.364643
0.3722
0.373523
0.378436
0.368707
0.363458
0.363
0.361187
0.365278
0.353368
0.371764
0.379891
0.380436
0.352143
0.367627
0.385378
0.368805
0.368189
0.373739
0.370552
0.364045
0.349744
0.356484
0.365156
0.370234
0.371142
0.361944
0.350912
0.364032
0.365896
0.388054
0.353428
0.364008
0.369018
0.352044
0.362156
0.360937
0.36632
0.384905
0.378338
0.383974
0.352802
0.337478
0.359667
0.373029
0.364105
0.370955
0.379869
0.358416
0.371378
0.363328
0.385089
0.366312
0.360335
0.364751
0.368875
0.353985
0.372809
0.355174
0.361658
0.372701
0.37056
0.365326
0.359757
0.362572
0.382949
0.382982
0.347101
0.358882
0.363242
0.383393
0.370133
0.352675
0.356003
0.358075
0.355745
0.354538
0.359012
0.378868
0.370751
0.375699
0.359599
0.375624
0.359403
0.35653
0.365059
0.357596
0.360423
0.349194
0.363705
0.364529
0.380946
0.367299
0.356492
0.357659
0.376472
0.381409
0.36438
0.351017
0.335869
0.370193
0.385149
0.355054
0.360529
0.377136
0.361569
0.371756
0.372547
0.341563
0.363858
0.351505
0.375058
0.357403
0.372131
0.375217
0.354407
0.364875
0.372225
0.355588
0.375576
0.3775
0.373123
0.370389
0.378352
0.376506
0.362257
0.34929
0.371021
0.358833
0.363755
0.371606
0.35973
0.373732
0.37343
0.361834
0.372731
0.368582
0.36084
0.335604
0.373349
0.378688
0.363576
0.384809
0.383858
0.360392
0.345532
0.372654
0.351925
0.356253
0.378332
0.36502
0.367661
0.350175
0.356937
0.362814
0.384641
0.366836
0.354984
0.361651
0.364991
0.349012
0.386987
0.371123
0.36298
0.351262
0.360886
0.345663
0.344375
0.38483
0.368194
0.360268
0.371143
0.375498
0.368158
0.36238
0.355691
0.345592
0.367837
0.381949
0.376034
0.360885
0.346247
0.369892
0.374896
0.381614
0.367371
0.368943