# vtk DataFile Version 2.0
2D Surface
ASCII
DATASET UNSTRUCTURED_GRID
POINTS 3083 float
7.16652e-05 -3.897e-05 0. 
7.173e-05 -3.89759e-05 0. 
7.182e-05 -3.89883e-05 0. 
7.191e-05 -3.89855e-05 0. 
7.2e-05 -3.89846e-05 0. 
7.209e-05 -3.89832e-05 0. 
7.218e-05 -3.89826e-05 0. 
7.227e-05 -3.89804e-05 0. 
7.236e-05 -3.89713e-05 0. 
7.245e-05 -3.89766e-05 0. 
7.254e-05 -3.89835e-05 0. 
7.263e-05 -3.89866e-05 0. 
7.272e-05 -3.89843e-05 0. 
7.281e-05 -3.8981e-05 0. 
7.29e-05 -3.89831e-05 0. 
7.299e-05 -3.89881e-05 0. 
7.308e-05 -3.89897e-05 0. 
7.317e-05 -3.89875e-05 0. 
7.326e-05 -3.89929e-05 0. 
7.335e-05 -3.89961e-05 0. 
7.344e-05 -3.8993e-05 0. 
7.353e-05 -3.89935e-05 0. 
7.362e-05 -3.89955e-05 0. 
7.371e-05 -3.89904e-05 0. 
7.38e-05 -3.89843e-05 0. 
7.389e-05 -3.89821e-05 0. 
7.398e-05 -3.89808e-05 0. 
7.407e-05 -3.89809e-05 0. 
7.416e-05 -3.89799e-05 0. 
7.425e-05 -3.89795e-05 0. 
7.434e-05 -3.89705e-05 0. 
7.443e-05 -3.89833e-05 0. 
7.452e-05 -3.89828e-05 0. 
7.461e-05 -3.89804e-05 0. 
7.46964e-05 -3.897e-05 0. 
7.47291e-05 -3.897e-05 0. 
7.479e-05 -3.89709e-05 0. 
7.488e-05 -3.89742e-05 0. 
7.497e-05 -3.89756e-05 0. 
7.506e-05 -3.89771e-05 0. 
7.515e-05 -3.89779e-05 0. 
7.524e-05 -3.89783e-05 0. 
7.533e-05 -3.89814e-05 0. 
7.542e-05 -3.89856e-05 0. 
7.551e-05 -3.89939e-05 0. 
7.56e-05 -3.89993e-05 0. 
7.569e-05 -3.89969e-05 0. 
7.578e-05 -3.89943e-05 0. 
7.587e-05 -3.89925e-05 0. 
7.596e-05 -3.89916e-05 0. 
7.605e-05 -3.8986e-05 0. 
7.614e-05 -3.89822e-05 0. 
7.623e-05 -3.89765e-05 0. 
7.63054e-05 -3.897e-05 0. 
7.63512e-05 -3.897e-05 0. 
7.641e-05 -3.89724e-05 0. 
7.65e-05 -3.89721e-05 0. 
7.659e-05 -3.89717e-05 0. 
7.668e-05 -3.8971e-05 0. 
7.677e-05 -3.89758e-05 0. 
7.686e-05 -3.89743e-05 0. 
7.695e-05 -3.89777e-05 0. 
7.704e-05 -3.89761e-05 0. 
7.713e-05 -3.89715e-05 0. 
7.72161e-05 -3.897e-05 0. 
6.97235e-05 -3.888e-05 0. 
6.975e-05 -3.88816e-05 0. 
6.984e-05 -3.88887e-05 0. 
6.993e-05 -3.88932e-05 0. 
7.002e-05 -3.88947e-05 0. 
7.011e-05 -3.89009e-05 0. 
7.02e-05 -3.89032e-05 0. 
7.029e-05 -3.89088e-05 0. 
7.038e-05 -3.8915e-05 0. 
7.047e-05 -3.89265e-05 0. 
7.056e-05 -3.89307e-05 0. 
7.065e-05 -3.89307e-05 0. 
7.074e-05 -3.89335e-05 0. 
7.083e-05 -3.89367e-05 0. 
7.092e-05 -3.89406e-05 0. 
7.101e-05 -3.89473e-05 0. 
7.11e-05 -3.89513e-05 0. 
7.119e-05 -3.89595e-05 0. 
7.128e-05 -3.89652e-05 0. 
7.137e-05 -3.89646e-05 0. 
7.146e-05 -3.89673e-05 0. 
7.155e-05 -3.89669e-05 0. 
7.164e-05 -3.89677e-05 0. 
7.47e-05 -3.89696e-05 0. 
7.632e-05 -3.89687e-05 0. 
7.722e-05 -3.89699e-05 0. 
7.731e-05 -3.89667e-05 0. 
7.74e-05 -3.89605e-05 0. 
7.749e-05 -3.89603e-05 0. 
7.758e-05 -3.89659e-05 0. 
7.767e-05 -3.89563e-05 0. 
7.776e-05 -3.8952e-05 0. 
7.785e-05 -3.89547e-05 0. 
7.794e-05 -3.89482e-05 0. 
7.803e-05 -3.8945e-05 0. 
7.812e-05 -3.89451e-05 0. 
7.821e-05 -3.89472e-05 0. 
7.83e-05 -3.89473e-05 0. 
7.839e-05 -3.89452e-05 0. 
7.848e-05 -3.89451e-05 0. 
7.857e-05 -3.89413e-05 0. 
7.866e-05 -3.89377e-05 0. 
7.875e-05 -3.89357e-05 0. 
7.884e-05 -3.89378e-05 0. 
7.893e-05 -3.8939e-05 0. 
7.902e-05 -3.89352e-05 0. 
7.911e-05 -3.89336e-05 0. 
7.92e-05 -3.89311e-05 0. 
7.929e-05 -3.89344e-05 0. 
7.938e-05 -3.89405e-05 0. 
7.947e-05 -3.89442e-05 0. 
7.956e-05 -3.89387e-05 0. 
7.965e-05 -3.89318e-05 0. 
7.974e-05 -3.89318e-05 0. 
7.983e-05 -3.89334e-05 0. 
7.992e-05 -3.89364e-05 0. 
8.001e-05 -3.89382e-05 0. 
8.01e-05 -3.89362e-05 0. 
8.019e-05 -3.89294e-05 0. 
8.028e-05 -3.89247e-05 0. 
8.037e-05 -3.8921e-05 0. 
8.046e-05 -3.89181e-05 0. 
8.055e-05 -3.89171e-05 0. 
8.064e-05 -3.8917e-05 0. 
8.073e-05 -3.89144e-05 0. 
8.082e-05 -3.8904e-05 0. 
8.091e-05 -3.88978e-05 0. 
8.1e-05 -3.88935e-05 0. 
8.109e-05 -3.8892e-05 0. 
8.118e-05 -3.88867e-05 0. 
8.12592e-05 -3.888e-05 0. 
6.77785e-05 -3.879e-05 0. 
6.786e-05 -3.87999e-05 0. 
6.795e-05 -3.88016e-05 0. 
6.804e-05 -3.88097e-05 0. 
6.813e-05 -3.88157e-05 0. 
6.822e-05 -3.88212e-05 0. 
6.831e-05 -3.88233e-05 0. 
6.84e-05 -3.88285e-05 0. 
6.849e-05 -3.88301e-05 0. 
6.858e-05 -3.88346e-05 0. 
6.867e-05 -3.88399e-05 0. 
6.876e-05 -3.88424e-05 0. 
6.885e-05 -3.88528e-05 0. 
6.894e-05 -3.88591e-05 0. 
6.903e-05 -3.88631e-05 0. 
6.912e-05 -3.88635e-05 0. 
6.921e-05 -3.8866e-05 0. 
6.93e-05 -3.88653e-05 0. 
6.939e-05 -3.8871e-05 0. 
6.948e-05 -3.88719e-05 0. 
6.957e-05 -3.88679e-05 0. 
6.966e-05 -3.88762e-05 0. 
8.127e-05 -3.88791e-05 0. 
8.136e-05 -3.88731e-05 0. 
8.145e-05 -3.88718e-05 0. 
8.154e-05 -3.88696e-05 0. 
8.163e-05 -3.88616e-05 0. 
8.172e-05 -3.88621e-05 0. 
8.181e-05 -3.88557e-05 0. 
8.19e-05 -3.88442e-05 0. 
8.199e-05 -3.88421e-05 0. 
8.208e-05 -3.88397e-05 0. 
8.217e-05 -3.88378e-05 0. 
8.226e-05 -3.88305e-05 0. 
8.235e-05 -3.88238e-05 0. 
8.244e-05 -3.88186e-05 0. 
8.253e-05 -3.88065e-05 0. 
8.262e-05 -3.88e-05 0. 
8.271e-05 -3.87956e-05 0. 
8.27672e-05 -3.879e-05 0. 
6.56437e-05 -3.87e-05 0. 
6.57e-05 -3.87055e-05 0. 
6.579e-05 -3.87104e-05 0. 
6.588e-05 -3.87139e-05 0. 
6.597e-05 -3.87207e-05 0. 
6.606e-05 -3.87218e-05 0. 
6.615e-05 -3.87219e-05 0. 
6.624e-05 -3.87212e-05 0. 
6.633e-05 -3.87301e-05 0. 
6.642e-05 -3.87405e-05 0. 
6.651e-05 -3.87459e-05 0. 
6.66e-05 -3.87535e-05 0. 
6.669e-05 -3.87559e-05 0. 
6.678e-05 -3.87629e-05 0. 
6.687e-05 -3.87607e-05 0. 
6.696e-05 -3.87639e-05 0. 
6.705e-05 -3.87658e-05 0. 
6.714e-05 -3.8766e-05 0. 
6.723e-05 -3.8771e-05 0. 
6.732e-05 -3.87732e-05 0. 
6.741e-05 -3.87704e-05 0. 
6.75e-05 -3.87752e-05 0. 
6.759e-05 -3.87849e-05 0. 
6.768e-05 -3.87875e-05 0. 
6.777e-05 -3.8789e-05 0. 
8.28e-05 -3.87868e-05 0. 
8.289e-05 -3.87809e-05 0. 
8.298e-05 -3.87772e-05 0. 
8.307e-05 -3.87673e-05 0. 
8.316e-05 -3.87642e-05 0. 
8.325e-05 -3.87609e-05 0. 
8.334e-05 -3.87575e-05 0. 
8.343e-05 -3.87556e-05 0. 
8.352e-05 -3.87484e-05 0. 
8.361e-05 -3.87387e-05 0. 
8.37e-05 -3.87297e-05 0. 
8.379e-05 -3.87255e-05 0. 
8.388e-05 -3.87248e-05 0. 
8.397e-05 -3.87212e-05 0. 
8.406e-05 -3.87135e-05 0. 
8.415e-05 -3.87116e-05 0. 
8.424e-05 -3.87094e-05 0. 
8.43091e-05 -3.87e-05 0. 
6.43719e-05 -3.861e-05 0. 
6.444e-05 -3.86169e-05 0. 
6.453e-05 -3.86236e-05 0. 
6.462e-05 -3.86302e-05 0. 
6.471e-05 -3.86382e-05 0. 
6.48e-05 -3.8645e-05 0. 
6.489e-05 -3.86483e-05 0. 
6.498e-05 -3.86552e-05 0. 
6.507e-05 -3.86615e-05 0. 
6.516e-05 -3.86633e-05 0. 
6.525e-05 -3.86604e-05 0. 
6.534e-05 -3.86689e-05 0. 
6.543e-05 -3.86791e-05 0. 
6.552e-05 -3.86887e-05 0. 
6.561e-05 -3.86967e-05 0. 
8.433e-05 -3.86971e-05 0. 
8.442e-05 -3.86969e-05 0. 
8.451e-05 -3.869e-05 0. 
8.46e-05 -3.86805e-05 0. 
8.469e-05 -3.8675e-05 0. 
8.478e-05 -3.86694e-05 0. 
8.487e-05 -3.86634e-05 0. 
8.496e-05 -3.86575e-05 0. 
8.505e-05 -3.865e-05 0. 
8.514e-05 -3.86397e-05 0. 
8.523e-05 -3.86321e-05 0. 
8.532e-05 -3.86311e-05 0. 
8.541e-05 -3.86249e-05 0. 
8.55e-05 -3.86162e-05 0. 
8.559e-05 -3.86125e-05 0. 
8.568e-05 -3.86142e-05 0. 
8.5745e-05 -3.861e-05 0. 
6.30986e-05 -3.852e-05 0. 
6.318e-05 -3.85314e-05 0. 
6.327e-05 -3.85375e-05 0. 
6.336e-05 -3.85431e-05 0. 
6.345e-05 -3.85451e-05 0. 
6.354e-05 -3.85496e-05 0. 
6.363e-05 -3.85566e-05 0. 
6.372e-05 -3.85621e-05 0. 
6.381e-05 -3.85601e-05 0. 
6.39e-05 -3.85633e-05 0. 
6.399e-05 -3.85758e-05 0. 
6.408e-05 -3.85886e-05 0. 
6.417e-05 -3.85945e-05 0. 
6.426e-05 -3.85957e-05 0. 
6.435e-05 -3.86078e-05 0. 
8.577e-05 -3.86084e-05 0. 
8.586e-05 -3.85979e-05 0. 
8.595e-05 -3.85843e-05 0. 
8.604e-05 -3.85824e-05 0. 
8.613e-05 -3.85762e-05 0. 
8.622e-05 -3.85725e-05 0. 
8.631e-05 -3.85673e-05 0. 
8.64e-05 -3.85557e-05 0. 
8.649e-05 -3.8548e-05 0. 
8.658e-05 -3.85465e-05 0. 
8.667e-05 -3.85402e-05 0. 
8.676e-05 -3.85361e-05 0. 
8.685e-05 -3.85318e-05 0. 
8.694e-05 -3.85238e-05 0. 
8.6991e-05 -3.852e-05 0. 
6.24735e-05 -3.843e-05 0. 
6.255e-05 -3.84443e-05 0. 
6.264e-05 -3.84608e-05 0. 
6.273e-05 -3.84734e-05 0. 
6.282e-05 -3.84808e-05 0. 
6.291e-05 -3.84893e-05 0. 
6.3e-05 -3.85033e-05 0. 
6.309e-05 -3.85188e-05 0. 
8.703e-05 -3.85171e-05 0. 
8.712e-05 -3.85026e-05 0. 
8.721e-05 -3.84897e-05 0. 
8.73e-05 -3.84708e-05 0. 
8.739e-05 -3.84536e-05 0. 
8.748e-05 -3.84377e-05 0. 
8.75317e-05 -3.843e-05 0. 
6.20673e-05 -3.834e-05 0. 
6.21e-05 -3.83536e-05 0. 
6.219e-05 -3.83646e-05 0. 
6.228e-05 -3.83859e-05 0. 
6.237e-05 -3.84058e-05 0. 
6.246e-05 -3.84275e-05 0. 
8.757e-05 -3.84243e-05 0. 
8.766e-05 -3.8403e-05 0. 
8.775e-05 -3.83901e-05 0. 
8.784e-05 -3.8361e-05 0. 
8.793e-05 -3.83477e-05 0. 
8.79498e-05 -3.834e-05 0. 
6.18477e-05 -3.825e-05 0. 
6.192e-05 -3.8311e-05 0. 
6.201e-05 -3.83162e-05 0. 
8.802e-05 -3.83127e-05 0. 
8.811e-05 -3.83002e-05 0. 
8.81603e-05 -3.825e-05 0. 
6.17694e-05 -3.816e-05 0. 
6.183e-05 -3.82322e-05 0. 
8.82e-05 -3.82002e-05 0. 
8.82319e-05 -3.816e-05 0. 
6.17457e-05 -3.807e-05 0. 
8.82491e-05 -3.807e-05 0. 
6.174e-05 -3.798e-05 0. 
8.82526e-05 -3.798e-05 0. 
6.17378e-05 -3.789e-05 0. 
6.174e-05 -3.79786e-05 0. 
8.82528e-05 -3.789e-05 0. 
6.17355e-05 -3.78e-05 0. 
8.82524e-05 -3.78e-05 0. 
6.17356e-05 -3.771e-05 0. 
8.8252e-05 -3.771e-05 0. 
6.1734e-05 -3.762e-05 0. 
8.82517e-05 -3.762e-05 0. 
6.17302e-05 -3.753e-05 0. 
8.82517e-05 -3.753e-05 0. 
6.1728e-05 -3.744e-05 0. 
8.82525e-05 -3.744e-05 0. 
6.17303e-05 -3.735e-05 0. 
8.82514e-05 -3.735e-05 0. 
6.17292e-05 -3.726e-05 0. 
8.82522e-05 -3.726e-05 0. 
6.17281e-05 -3.717e-05 0. 
8.82536e-05 -3.717e-05 0. 
6.17293e-05 -3.708e-05 0. 
8.82554e-05 -3.708e-05 0. 
6.17284e-05 -3.699e-05 0. 
8.82558e-05 -3.699e-05 0. 
6.17276e-05 -3.69e-05 0. 
8.82578e-05 -3.69e-05 0. 
6.1726e-05 -3.681e-05 0. 
8.82579e-05 -3.681e-05 0. 
6.17258e-05 -3.672e-05 0. 
8.82569e-05 -3.672e-05 0. 
6.17242e-05 -3.663e-05 0. 
8.82603e-05 -3.663e-05 0. 
6.17229e-05 -3.654e-05 0. 
8.82627e-05 -3.654e-05 0. 
6.17229e-05 -3.645e-05 0. 
8.82684e-05 -3.645e-05 0. 
6.17261e-05 -3.636e-05 0. 
8.82694e-05 -3.636e-05 0. 
6.17285e-05 -3.627e-05 0. 
8.82697e-05 -3.627e-05 0. 
6.17258e-05 -3.618e-05 0. 
8.82734e-05 -3.618e-05 0. 
6.17226e-05 -3.609e-05 0. 
8.82707e-05 -3.609e-05 0. 
6.1721e-05 -3.6e-05 0. 
8.82781e-05 -3.6e-05 0. 
6.17266e-05 -3.591e-05 0. 
8.82755e-05 -3.591e-05 0. 
6.17245e-05 -3.582e-05 0. 
[...]
POINT_DATA 3083
SCALARS Coverage0 float 1
LOOKUP_TABLE default
0.20083
0.202166
0.218499
0.233718
0.243003
0.222008
0.196283
0.172176
0.212151
0.228967
0.210184
0.208061
0.208221
0.178742
0.174732
0.202519
0.209569
0.197254
0.193532
0.207454
0.228238
0.214156
0.215699
0.24248
0.212998
0.192699
0.216857
0.191954
0.181806
0.204689
0.202888
0.197402
0.208052
0.21515
0.216087
0.216087
0.205201
0.217132
0.196866
0.186346
0.199456
0.224976
0.198988
0.20986
0.199377
0.190097
0.219482
0.204938
0.21525
0.198062
0.208474
0.210097
0.19625
0.197355
0.197355
0.18832
0.223849
0.230836
0.226524
0.206969
0.208154
0.196774
0.199567
0.197426
0.189434
0.203646
0.203646
0.201323
0.215968
0.194519
0.189202
0.190931
0.174484
0.179908
0.192546
0.20819
0.228389
0.23339
0.202475
0.189589
0.225886
0.219626
0.203083
0.192666
0.208274
0.210422
0.191253
0.20083
0.216087
0.197355
0.189434
0.190244
0.192215
0.208688
0.207175
0.204234
0.192401
0.204784
0.21114
0.211164
0.200084
0.184171
0.197074
0.206238
0.192881
0.171013
0.157472
0.168128
0.188526
0.204218
0.204206
0.194943
0.214523
0.224835
0.193266
0.214067
0.212769
0.209499
0.206322
0.203568
0.203505
0.200179
0.188222
0.220449
0.221918
0.228174
0.207271
0.187586
0.195531
0.191132
0.176944
0.195126
0.213834
0.204868
0.196667
0.177001
0.199659
0.176142
0.170687
0.198686
0.214777
0.189921
0.187273
0.208842
0.204597
0.204556
0.198338
0.212217
0.189243
0.189903
0.175849
0.197304
0.207497
0.186955
0.193663
0.23988
0.237749
0.216616
0.177001
0.17013
0.199828
0.210622
0.205905
0.213547
0.212706
0.19672
0.190209
0.195151
0.220534
0.200287
0.187675
0.198687
0.205803
0.211613
0.19002
0.198367
0.229606
0.225399
0.213709
0.192898
0.18088
0.208698
0.211709
0.189766
0.201801
0.232739
0.215393
0.187702
0.176797
0.186936
0.172098
0.197478
0.218112
0.212275
0.180776
0.177177
0.20845
0.230673
0.209801
0.195107
0.199659
0.198367
0.175121
0.192242
0.22273
0.202933
0.182281
0.198319
0.172743
0.191801
0.208378
0.204533
0.208299
0.216662
0.220035
0.238077
0.207858
0.194036
0.198843
0.212748
0.195132
0.209227
0.198629
0.179419
0.199235
0.191207
0.192726
0.218772
0.210528
0.198019
0.17256
0.172726
0.200737
0.229606
0.198843
0.217461
0.221747
0.212972
0.208118
0.194216
0.191225
0.210679
0.195691
0.19979
0.202043
0.188471
0.177586
0.212654
0.249512
0.2239
0.211235
0.196083
0.195778
0.212667
0.206989
0.200263
0.183748
0.184034
0.216583
0.200909
0.213211
0.210112
0.205299
0.180272
0.182815
0.212748
0.211235
0.197619
0.208853
0.194288
0.188153
0.200333
0.183542
0.180093
0.202221
0.186241
0.190508
0.197993
0.204035
0.200278
0.17866
0.177644
0.199706
0.176431
0.178002
0.194941
0.175225
0.170676
0.196083
0.17866
0.187833
0.20747
0.236181
0.212636
0.179268
0.184751
0.236583
0.236583
0.234641
0.204244
0.205385
0.177644
0.184751
0.214257
0.22218
0.219432
0.231327
0.231327
0.320657
0.238455
0.243996
0.252269
0.270947
0.3652
0.483219
0.320657
0.541856
0.541856
0.755071
0.842621
0.850108
0.918171
0.881882
0.850108
0.992119
0.898555
0.975661
0.964891
0.983115
0.941148
0.895235
0.699905
0.958853
0.879988
0.987083
0.897999
0.991646
0.908781
0.972342
0.963461
0.963842
0.956798
0.924221
0.84061
0.855136
0.857632
0.941996
0.88142
0.956751
0.966476
0.787118
0.931779
0.824011
0.858261
0.830057
0.996254
0.911972
1
0.932406
0.936427
0.800568
0.961004
0.949731
0.931678
0.950022
0
0.879122
0
0.567055
0.892794
0.705362
0.750587
0.915068
0.810478
0.972975
0.923063
0.925875
0.999697
0.941132
0.975455
0.986136
0.11528
0.92463
0.974045
0.941029
0.944033
0
1
0.96783
0.923449
0.860056
0.848226
0.990985
0.945385
0.998263
0.909825
0.999102
0.806206
0.987846
0.959767
0.97968
0.883365
0.982727
0.818352
0.962812
0.911406
0.99947
0.983723
0.986588
0.948216
0.963262
0.965078
0.959056
0.949275
0.914123
0.968797
0.983102
0.957365
0.998582
0.892967
0.891186
0.928786
0.853569
0.833464
0.9235
0.749066
0.89823
1
0.600036
1
0.89279
0.977692
0.927757
0.823599
0.995447
0.931259
0.755733
0.975993
0.919496
0.919496
0.718871
0.616382
0.952199
0.616382
0.999688
0
0.87936
0.995508
0.974649
0
0.961049
0
0.881266
1
0.907769
0.907769
0.980173
0.907769
0.633974
0.870986
0.954823
0.955373
0.948029
0.948029
0.960436
0.781293
0.815567
0.602574
1
0.823611
0.96376
0.90627
0.926515
0.840917
0
0.756297
0.991142
0.886729
0.845439
0.864701
0.947659
0
0.763758
1
0.829303
1
0.770836
0
0
1
0
0.87894
0.290771
0.961101
0.99585
0.978829
0.910406
0.752223
0.911575
0.602252
0.82571
0.602252
1
1
0
0.996118
1
0.953864
1
1
0.887205
1
0.911749
0.843086
0.611184
0.728332
0.68825
0.788779
0.751628
0.788779
1
1
0
1
1
0.746255
0
0.809231
0
0.779734
0.779734
1
0.779734
0.831313
0
0.821675
0.831313
0
0
0.944104
1
0.953764
0.90349
0
0
0.787571
0
0
0.78421
0
0.792128
0.792128
0
0
1
0
1
0
1
0
0.423351
0.423351
1
0.750488
0.423351
0
1
0
0
0.970189
0.681022
0.664008
0
0.801183
0
0.941487
0
0.75523
1
0
0.75523
0
0
0
0.99942
0.796843
0.85396
0.818373
0.92432
0
0.818373
0.806143
0
0
0.879964
0.834829
0.760335
0.760335
0
0.834829
1
1
0
1
1
0
0
0.823889
0
0
0
0.79013
0.746465
0.714557
0
0.922257
0.922257
0.746465
0
0
0
0
0
0
0
0
1
1
0
1
0
1
1
0
1
0.809955
1
0.809955
0.840479
1
0.860461
1
1
0.871725
0
0.871725
1
0.824911
0
0.663835
0
0
0
0.663835
1
0
1
0.631302
0
0
1
1
0
0
1
0
0
0
0
1
0.753232
0.753232
0.663674
0
0.820466
0.820466
1
0.767525
0
0.679939
0.679939
0
0.961391
0.751957
0.751957
0.752904
0.752904
0.794407
0.751957
0
0
0.76335
0.862257
1
0.76335
0.862257
0.70253
1
0
1
0
0
0
0
0.676549
1
0.719046
1
1
1
1
0.746425
1
1
0
0
1
0
0
0.912844
0
0.912844
1
1
0
1
0
1
0
1
0.723448
1
0.701755
0.723448
1
1
1
1
1
1
1
1
1
1
1
1
0.889364
1
1
0.889364
0
0
0
1
0
0.979562
0.979562
1
0.848346
0.848346
0.979562
1
1
0
0.880071
0.880071
1
0.823331
0.823331
0.880071
0.578172
0.812655
0.812655
0.823331
0
0
0
0
0
1
1
0.838395
0.838395
0
1
1
0
0.838395
0.783089
0
0
0.970727
0.970727
0
0
0
0
0
0.970727
0
0
0
1
0
1
0.994147
0.994147
1
1
0.994147
0
0
1
0
1
0.997179
0.788632
0
1
0.997179
0.986186
1
1
1
1
0
0.986186
0
0
0
1
0
0.975012
0
0.827185
0.827185
0
0
0
0
0
0
0
0.877077
0.877077
0
0.552852
0.877077
0
0
0
0
0
0.552852
0
1
0
0
0.99407
0.99407
0
0
0.910191
0.99407
0
0.927414
1
0.822897
0.822897
1
0.782379
0
1
1
1
0.755502
0.978673
0
1
0
0.755502
0.94401
0
0
0
0.912562
0
0
0.633659
0.633659
0
0.912562
0
1
0
0
0.633659
0
1
1
1
1
1
1
1
1
0
1
1
0
1
0.972377
1
0.972377
1
1
1
0
0
0
1
0
0.998626
0.998626
0
0.847101
0.847101
0.998626
0
0.948435
0.809902
0.764282
0.764282
0.825985
1
1
0
0.825985
0.912348
0.912348
0
1
1
0
0
0.912348
0.791538
0.791538
0.914705
0
0.753488
0
0
0.753488
1
1
0
1
0
1
0.998294
0.998294
0
0.998294
0
1
0
0
1
0
1
1
1
0
1
0
0
1
1
1
0
0.809687
1
0.890736
1
1
0
1
1
1
0
0
0
0
0
1
0
0
0.921283
0.921283
1
1
0.921283
0.79406
1
0.79406
0
0
1
1
1
0.96122
0.96122
0
0
0.711601
0.96122
0.867149
0.808114
0.811342
0.711601
1
1
0.910447
0.976441
0.991667
1
0
1
0.910447
0.976441
0.708964
0.708964
0
0.708964
0.705054
0
0.705054
0.769345
0
0.769345
0
0
0
0
0
0
0
0
1
0
0
0
0
0
0
1
0
1
0
0.834354
0.834354
1
0.834354
0
1
0
0
0
0
0
0.795571
0.795571
0
0.662592
0.662592
0.795571
0
1
1
0.750519
0.750519
0.662592
0
0
0
1
0
0
1
0
1
0.994989
0.994989
1
0.783913
0.994989
0
0
1
1
0
1
1
0
0
0
0
1
0
1
0
0
0
0
1
0
0.989414
0.989414
1
0
0.723078
0.723078
0.989414
1
0
0
0.72733
0.526316
0.723078
1
1
0
0.568173
0.890862
0.890862
0.735658
0.735658
0.890862
1
1
1
0.752026
0
0
1
1
1
0
1
0
0
0
1
1
1
0
0
0
0.894157
0.894157
0
1
0
0
0
0
0.894157
0.912492
0.912492
0.779206
0
1
1
1
1
1
0
1
1
0.980619
0.980619
0
0
0
1
1
0.980619
0.729807
0
0
0.780601
0.780601
0
0
0
1
1
0
0.991912
0.991912
1
0
0
0.991912
1
1
0
0.783572
1
0.906537
0.906537
1
1
1
0
0
0
1
0
1
0
0.970646
0.970646
0.954153
0
0
1
0.970646
0
0
0
1
1
0
1
0.935122
0.935122
1
1
1
1
0.675891
0.935122
1
1
1
1
0
0.675891
1
1
1
0
0.480131
0.480131
0
0
0.480131
0.834048
0
1
0.834048
1
1
1
0.942907
0.942907
1
0.677902
0.608357
0.942907
0
1
1
0.728728
0.728728
0
1
0.728728
0
1
0
1
0
0
0.8219
0
0
0.80089
0.80089
0
0
1
1
0
0.990173
0.990173
0
0
0.990173
1
0
0
1
0
0
0
0.972545
0
0.776563
0.776563
0
0
0.780369
0.984553
0.984553
0
1
0
0.984553
0.825829
0
0.825829
1
1
0
0.993914
0.993914
0
1
0
0.993914
0.811256
1
0.883588
0.883588
0
0
1
0
0
0
1
1
0
0
0
1
0
0
1
1
0.982778
0.982778
0
0.837915
0.982778
0.684636
0.684636
1
0.837915
1
1
0.746975
0
0
0.746975
0
1
0.984869
0.984869
1
0.87608
0.984869
1
1
0.831097
0.907184
0.907184
0.848119
0.848119
0.907184
0
1
1
0
1
0
1
1
0
1
1
0
1
1
1
0
0
0.81741
0.81741
0
0.81741
0.851762
1
1
0
0
0
0
0.993635
0.993635
0.851762
1
0
0
0
0.921612
0.993635
0
0
0
0.915304
1
1
1
1
0.915304
1
0
0
0
0
1
0
0
1
0
1
0
0
1
0.734162
1
1
1
0
1
1
1
1
0
0
0
0.987219
0.891213
0.891213
1
0.710574
0.710574
0.987219
0.891213
0
0
1
1
1
0
0
0
0.827576
0
0
0
0
0
0.827576
0.986241
0.986241
0
0
0.986241
0.951281
1
0.84708
0
0.843604
0.843604
0
0
1
1
1
1
0
0.863482
1
0
0
0
1
0.863482
0
1
1
0.997385
0.997385
0
0
1
1
0.997385
0
1
1
0.927852
0.927852
0
1
1
1
1
1
1
0.927852
0
0
0
0
0
0
1
0
0
1
1
0
0.996973
0
0.996973
0
1
1
1
0.772626
0.996973
0
0
0
0
0
0.772626
1
1
0
1
1
0
0
1
0
0
0.942627
0.942627
0.97365
0
1
0.942627
0.60765
0.60765
0
0
0
1
0
0
1
0
0
0
0
0
0.831923
0.995289
0.995289
0
0
0
0.831923
0.995289
0.524102
0.524102
0
1
1
0
0.524102
0.33989
0
0
0
0
0
0.996309
0.996309
0
0
0
0.996309
0.0047328
0.787082
1
0.840094
1
0.840882
0.840882
0.80631
0.997619
0.997619
0.784921
0.575688
0.575688
1
0.80631
0.997619
1
0
1
0.986851
0.986851
0.868805
1
0
0.986851
0.868805
0.745325
0.745325
1
0
1
0.983498
1
0.993489
0.993489
0.786094
0
0.993489
0.811112
0
0
0
0
0
0
0
0
0.882323
1
0.739684
0.739684
1
1
0.969776
0.739684
1
1
1
0
0.969776
1
1
1
1
0
1
1
1
0
0
1
0.776992
0
0
1
1
0.883793
0
1
1
0.667949
0.667949
1
1
0.829667
1
1
1
1
1
0
0.867967
0.867967
0
0.968061
0.968678
0.968678
0.867967
0.874046
0.874046
0.847124
0.847124
0.968061
0.968678
0.895284
0.839774
0.711761
0.711761
0
0
0.839774
0
0
1
0.975507
0.975507
0.996184
0.996184
0
0.631956
0.631956
0.70612
0.975507
0.996184
0.781018
0.781018
0
0.816195
1
0.992026
0.992026
0.787773
0.741656
0.741656
0.410256
0.992026
1
0.741656
0.595488
0.711353
0.370498
0.379898
0.357209
0.35987
0.361039
0.357832
0.369937
0.360756
0.359861
0.379705
0.346461
0.355981
0.388578
0.367992
0.380657
0.352347
0.35423
0.36671
0.347229
0.352753
0.378342
0.369748
0.355964
0.367117
0.369016
0.366468
0.361469
0.364598
0.365587
0.367145
0.369419
0.356859
0.379643
0.374574
0.366159
0.354909
0.355583
0.384103
0.371222
0.370248
0.34627
0.358563
0.358624
0.363734
0.385528
0.349839
0.364837
0.37639
0.358572
0.394413
0.375094
0.359547
0.34076
0.375957
0.347758
0.355922
0.361652
0.375194
0.375171
0.370936
0.368725
0.372094
0.380342
0.35745
0.359697
0.360177
0.358238
0.36928
0.360886
0.358349
0.374526
0.369637
0.363479
0.362262
0.371509
0.371338
0.366304
0.358796
0.369522
0.369743
0.359792
0.369223
0.368192
0.370935
0.365775
0.351763
0.358381
0.393803
0.383232
0.363323
0.35519
0.366352
0.36491
0.365254
0.363615
0.362411
0.353302
0.37918
0.373889
0.36507
0.359503
0.365553
0.363606
0.376971
0.395538
0.351967
0.364508
0.361708
0.373528
0.357322
0.352436
0.360216
0.369408
0.37148
0.370306
0.369516
0.370576
0.359419
0.385367
0.374474
0.371422
0.360385
0.375075
0.367621
0.363806
0.358645
0.350682
0.36997
0.36343
0.35381
0.37997
0.379179
0.370826
0.381485
0.358224
0.351264
0.356341
0.364518
0.361979
0.3647
0.359435
0.351005
0.36369
0.368056
0.35133
0.368227
0.380926
0.34515
0.363993
0.367447
0.387107
0.360866
0.362482
0.377819
0.363447
0.366193
0.367331
0.367605
0.375202
0.358898
0.362847
0.36715
0.356183
0.354755
0.365256
0.373177
0.383399
0.372651
0.365479
0.353426
0.370361
0.381818
0.382523
0.37376
0.364426
0.371784
0.366756
0.358447
0.371165
0.339612
0.368125
0.363086
0.379266
0.367715
0.361807
0.371848
0.372467
0.376662
0.388311
0.372056
0.365382
0.364746
0.352529
0.376687
0.369354
0.353443
0.377196
0.392942
0.373308
0.364106
0.368117
0.362617
0.369322
0.369386
0.357477
0.378695
0.384808
0.361953
0.362015
0.348409
0.345567
0.358779
0.364923
0.372349
0.360456
0.346961
0.365057
0.386539
0.371114
0.366231
0.376179
0.37313
0.381741
0.352588
0.350467
0.355221
0.366336
0.362037
0.382124
0.365383
0.372652
0.383002
0.358192
0.357707
0.375454
0.36311
0.366168
0.360709
0.370741
0.361345
0.358962
0.359464
0.362269
0.369187
0.366332
0.366308
0.361974
0.368653
0.366811
0.360405
0.392833
0.366899
0.378881
0.377548
0.371467
0.372024
0.35358
0.374142
0.371763
0.364639
0.369846
0.358956
0.363162
0.369845
0.363911
0.360528
0.363348
0.374051
0.37243
0.366045
0.352934
0.359179
0.371282
0.375464
0.364747
0.35597
0.359448
0.345106
0.373903
0.36968
0.368476
0.371132
0.371376
0.371851
0.373645
0.356271
0.365587
0.358551
0.346408
0.385281
0.364564
0.37417
0.360254
0.38226
0.374035
0.347909
0.367763
0.365077
0.37665
0.351824
0.369478
0.381767
0.367145
0.363672
0.362701
0.388669
0.366641
0.354241
0.360011
0.35653
0.372855
0.378977
0.37833
0.355695
0.352955
0.369473
0.383443
0.359496
0.363003
0.370111
0.382035
0.364449
0.36226
0.371254
0.37012
0.372653
0.370245
0.351403
0.362046
0.362659
0.373352
0.380273
0.383741
0.361564
0.35354
0.348804
0.379484
0.382882
0.352104
0.368129
0.357506
0.38159
0.36258
0.378108
0.385351
0.357959
0.3462
0.368568
0.350412
0.371038
0.373259
0.360723
0.359666
0.374778
0.37247
0.366405
0.348457
0.364599
0.365617
0.358828
0.365109
0.376603
0.372688
0.379754
0.364142
0.348382
0.362952
0.371779
0.35117
0.357438
0.359522
0.363446
0.38923
0.377943
0.370333
0.368948
0.34374
0.363044
0.377704
0.36683
0.34469
0.350358
0.353737
0.350579
0.374405
0.370575
0.362574
0.353308
0.358481
0.385777
0.359365
0.381441
0.372554
0.360068
0.359633
0.359605
0.376335
0.380603
0.372639
0.366359
0.373274
0.371675
0.372801
0.335001
0.361622
0.372222
0.362818
0.350863
0.374774
0.392476
0.361477
0.366628
0.376889
0.3772
0.366655
0.360798
0.373492
0.3603
0.366842
0.392927
0.372776
0.354881
0.354554
0.370201
0.373065
0.347107
0.364933
0.370917
0.361056
0.357234
0.3749
0.374673
0.370875
0.378233
0.377784
0.36658
0.362034
0.357334
0.352124
0.373188
0.364577
0.38128
0.379545
0.365064
0.365554
0.374271
0.360553
0.355292
0.362303
0.386634
0.364156
0.359283
0.362872
0.363196
0.365375
0.367902
0.377659
0.377693
0.366069
0.354634
0.372699
0.363738
0.341469
0.359779
0.368717
0.384906
0.363124
0.355262
0.383063
0.359618
0.369794
0.382943
0.361586
0.35754
0.379624
0.376299
0.366246
0.368006
0.347191
0.358691
0.369784
0.367276
0.354943
0.371805
0.363334
0.376457
0.364971
0.335786
0.366684
0.36471
0.365622
0.337909
0.356488
0.371879
0.376601
0.368767
0.361872
0.371069
0.338532
0.357853
0.361715
0.374724
0.361834
0.364587
0.375652
0.371339
0.370283
0.352764
0.348149
0.362516
0.354067
0.37013
0.385532
0.371512
0.373483
0.376703
0.361355
0.368473
0.354581
0.368813
0.369137
0.37078
0.358771
0.367102
0.371623
0.379433
0.377962
0.363655
0.373004
0.374432
0.362492
0.348779
0.360779
0.348262
0.350365
0.36027
0.371637
0.367356
0.384846
0.376607
0.3617
0.36507
0.374579
0.352652
0.366904
0.380757
0.364933
0.381576
0.351613
0.347319
0.375519
0.376712
0.367019
0.371851
0.356527
0.396291
0.377728
0.358668
0.37231
0.365944
0.373934
0.3763
0.351545
0.372058
0.376409
0.366298
0.363834
0.344686
0.360554
0.371567
0.368355
0.38142
0.363367
0.371663
0.374257
0.374907
0.363136
0.355964
0.366635
0.387225
0.357865
0.36609
0.354914
0.368802
0.376128
0.369623
0.358617
0.371821
0.346166
0.356321
0.366024
0.368042
0.377275
0.38895
0.363402
0.363725
0.383663
0.365584
0.344947
0.360147
0.355538
0.359114
0.388581
0.390901
0.352875
0.351937
0.370275
0.363776
0.373421
0.357852
0.371252
0.342769
0.361032
0.369847
0.366762
0.371596
0.365162
0.369074
0.362635
0.370704
0.37117
0.37772
0.373334
0.385435
0.350252
0.365021
0.369614
0.356329
0.362716
0.364595
0.384349
0.366748
0.355532
0.356633
0.379339
0.370116
0.368447
0.362535
0.363723
0.361085
0.358362
0.36869
0.35688
0.353525
0.370565
0.378757
0.35816
0.365487
0.376721
0.371629
0.368522
0.354117
0.372195
0.367196
0.357682
0.361952
0.366135
0.378069
0.370373
0.353249
0.362594
0.369483
0.365599
0.36693
0.377605
0.376526
0.386594
0.385256
0.366854
0.354491
0.369754
0.373776
0.381321
0.364352
0.361122
0.365714
0.358642
0.368068
0.380321
0.374691
0.350715
0.35026
0.39109
0.397633
0.348753
0.362461
0.345854
0.373156
0.392229
0.36688
0.346655
0.366334
0.374804
0.377707
0.373069
0.369326
0.380759
0.378827
0.364804
0.355646
0.382058
0.373589
0.35722
0.346427
0.376094
0.386038
0.359524
0.357726
0.368207
0.382094
0.367858
0.356337
0.368585
0.391929
0.360294
0.372054
0.35418
0.367499
0.361935
0.353097
0.373137
0.383474
0.357835
0.35722
0.370708
0.357449
0.368492
0.367451
0.367617
0.368483
0.383487
0.379779
0.363178
0.358683
0.363139
0.34531
0.351299
0.375128
0.362741
0.379167
0.379573
0.349278
0.368622
0.37839
0.371935
0.351848
0.350057
0.375353
0.365421
0.36455
0.37455
0.373432
0.373174
0.377207
0.352105
0.392972
0.374575
0.375751
0.372789
0.356621
0.358779
0.350732
0.370787
0.36458
0.364026
0.358605
0.378207
0.367201
0.352007
0.36364
0.362165
0.358391
0.361278
0.366371
0.393316
0.357386
0.3644
0.36782
0.359
0.362674
0.377487
0.357172
0.36852
0.3683
0.354097
0.35701
0.350496
0.373554
0.350659
0.372036
0.378013
0.360961
0.364272
0.37109
0.366605
0.367671
0.35519
0.370589
0.368889
0.352719
0.335809
0.369357
0.369922
0.361346
0.361769
0.365393
0.368897
0.370587
0.358015
0.355806
0.366042
0.369453
0.377498
0.377933
0.367569
0.363433
0.380564
0.356274
0.355422
0.379664
0.373098
0.356329
0.348277
0.37208
0.364184
0.36351
0.375253
0.378258
0.384292
0.358055
0.341
0.368002
0.360289
0.367206
0.367077
0.359593
0.361309
0.368909
0.352927
0.372186
0.36128
0.368497
0.368286
0.374836
0.376323
0.354309
0.371991
0.349322
0.365569
0.371607
0.371096
0.370568
0.371416
0.360893
0.364613
0.374278
0.359017
0.350537
0.364106
0.376299
0.36621
0.374624
0.36604
0.360838
0.366177
0.369119
0.382197
0.378112
0.352149
0.361901
0.372677
0.364879
0.372698
0.363282
0.354895
0.366998
0.374176
0.354222
0.371145
0.363726
0.354812
0.355829
0.371648
0.369975
0.392392
0.357128
0.367398
0.362428
0.371584
0.375741
0.38182
0.373665
0.354366
0.350949
0.358378
0.358908
0.360437
0.36162
0.376412
0.360182
0.353524
0.368691
0.385188
0.367195
0.354873
0.369703
0.374941
0.370142
0.356511
0.35161
0.371432
0.388099
0.368091
0.358747
0.363453
0.3511
0.342489
0.363392
0.376743
0.382088
0.34931
0.378583
0.39233
0.376943
0.362079
0.377341
0.356444
0.365846
0.343416
0.377281
0.378441
0.377907
0.372981
0.380532
0.364235
0.339474
0.36717
0.36631
0.352717
0.357933
0.38288
0.365873
0.36085
0.366886
0.375776
0.34759
0.329371
0.385502
0.375765
0.367884
0.36001
0.377354
0.390738
0.360379
0.352752
0.363937
0.365466
0.356211
0.379959
0.360807
0.368952
0.388847
0.364531
0.33518
0.356518
0.376125
0.371212
0.392174
0.385191
0.353045
0.35388
0.369002
0.371096
0.385917
0.364647
0.37696
0.372158
0.352895
0.364835
0.358517
0.370517
0.353176
0.364
0.380853
0.380784
0.365476
0.375751
0.358751
0.373343
0.385785
0.355596
0.340887
0.365459
0.357225
0.382604
0.369477
0.378833
0.339828
0.368123
0.381019
0.381207
0.366286
0.365575
0.382449
0.383232
0.367018
0.370402
0.387145
0.37344
0.370575
0.36414
0.355841
0.36322
0.376982
0.372097
0.351601
0.369367
0.381819
0.358226
0.371034
0.377045
0.354673
0.357031
0.369787
0.387369
0.364474
0.358142
0.375967
0.38056
0.364614
0.365174
0.35861
0.376407
0.378443
0.378133
0.369521
0.359939
0.377848
0.366657
0.37157
0.359412
0.351866
0.355307
0.3872
0.366341
0.354938
0.357269
0.384887
0.372717
0.357397
0.359293
0.377691
0.363133
0.360739
0.349844
0.368176
0.367932
0.368923
0.354562
0.380943
0.374617
0.368061
0.352921
0.366418
0.3711
0.359209
0.351799
0.372804
0.356654
0.351548
0.351479
0.372476
0.360117
0.373891
0.359959
0.343116
0.388999
0.358939
0.355635
0.353742
0.352898
0.37956
0.376048
0.368037
0.376944
0.344504
0.357283
0.374148
0.36585
0.354575
0.364495
0.348538
0.359467
0.363109
0.363937
0.355336
0.374261
0.381261
0.386271
0.37086
0.368805
0.37147
0.33861
0.366774
0.373788
0.377624
0.355565
0.357754
0.341021
0.367878
0.360552
0.350787
0.381648
0.375
0.373749
0.3829
0.374445
0.361235
0.374558
0.366414
0.37411
0.368195
0.373388
0.37502
0.351578
0.370582
0.36101
0.368478
0.368685
0.347329