# vtk DataFile Version 2.0
2D Surface
ASCII
DATASET UNSTRUCTURED_GRID
POINTS 3801 float
7.08774e-05 -5.931e-05 0. 
7.092e-05 -5.9312e-05 0. 
7.101e-05 -5.93128e-05 0. 
7.10414e-05 -5.931e-05 0. 
7.13385e-05 -5.931e-05 0. 
7.137e-05 -5.93115e-05 0. 
7.13864e-05 -5.931e-05 0. 
7.15676e-05 -5.931e-05 0. 
7.164e-05 -5.93169e-05 0. 
7.173e-05 -5.93265e-05 0. 
7.182e-05 -5.9327e-05 0. 
7.191e-05 -5.93225e-05 0. 
7.2e-05 -5.9322e-05 0. 
7.209e-05 -5.93293e-05 0. 
7.218e-05 -5.93279e-05 0. 
7.227e-05 -5.93366e-05 0. 
7.236e-05 -5.9338e-05 0. 
7.245e-05 -5.93401e-05 0. 
7.254e-05 -5.93371e-05 0. 
7.263e-05 -5.93304e-05 0. 
7.272e-05 -5.9322e-05 0. 
7.281e-05 -5.93302e-05 0. 
7.29e-05 -5.93339e-05 0. 
7.299e-05 -5.93288e-05 0. 
7.308e-05 -5.93274e-05 0. 
7.317e-05 -5.93338e-05 0. 
7.326e-05 -5.93356e-05 0. 
7.335e-05 -5.93348e-05 0. 
7.344e-05 -5.93306e-05 0. 
7.353e-05 -5.933e-05 0. 
7.362e-05 -5.93279e-05 0. 
7.371e-05 -5.93186e-05 0. 
7.38e-05 -5.93234e-05 0. 
7.389e-05 -5.93164e-05 0. 
7.398e-05 -5.93234e-05 0. 
7.407e-05 -5.93236e-05 0. 
7.416e-05 -5.93294e-05 0. 
7.425e-05 -5.93342e-05 0. 
7.434e-05 -5.93354e-05 0. 
7.443e-05 -5.93374e-05 0. 
7.452e-05 -5.93417e-05 0. 
7.461e-05 -5.93464e-05 0. 
7.47e-05 -5.93421e-05 0. 
7.479e-05 -5.93358e-05 0. 
7.488e-05 -5.93387e-05 0. 
7.497e-05 -5.93475e-05 0. 
7.506e-05 -5.93426e-05 0. 
7.515e-05 -5.93422e-05 0. 
7.524e-05 -5.93479e-05 0. 
7.533e-05 -5.93501e-05 0. 
7.542e-05 -5.93389e-05 0. 
7.551e-05 -5.93441e-05 0. 
7.56e-05 -5.93353e-05 0. 
7.569e-05 -5.93379e-05 0. 
7.578e-05 -5.93454e-05 0. 
7.587e-05 -5.93512e-05 0. 
7.596e-05 -5.93501e-05 0. 
7.605e-05 -5.9358e-05 0. 
7.614e-05 -5.9358e-05 0. 
7.623e-05 -5.93493e-05 0. 
7.632e-05 -5.93522e-05 0. 
7.641e-05 -5.93482e-05 0. 
7.65e-05 -5.93469e-05 0. 
7.659e-05 -5.93465e-05 0. 
7.668e-05 -5.9337e-05 0. 
7.677e-05 -5.9341e-05 0. 
7.686e-05 -5.93375e-05 0. 
7.695e-05 -5.93395e-05 0. 
7.704e-05 -5.93318e-05 0. 
7.713e-05 -5.93274e-05 0. 
7.722e-05 -5.93252e-05 0. 
7.731e-05 -5.93247e-05 0. 
7.74e-05 -5.93184e-05 0. 
7.749e-05 -5.93207e-05 0. 
7.758e-05 -5.93207e-05 0. 
7.767e-05 -5.93233e-05 0. 
7.776e-05 -5.93228e-05 0. 
7.785e-05 -5.93307e-05 0. 
7.794e-05 -5.93334e-05 0. 
7.803e-05 -5.9341e-05 0. 
7.812e-05 -5.93419e-05 0. 
7.821e-05 -5.93394e-05 0. 
7.83e-05 -5.93346e-05 0. 
7.839e-05 -5.93279e-05 0. 
7.848e-05 -5.93301e-05 0. 
7.857e-05 -5.93246e-05 0. 
7.866e-05 -5.93244e-05 0. 
7.875e-05 -5.93253e-05 0. 
7.884e-05 -5.93261e-05 0. 
7.893e-05 -5.93243e-05 0. 
7.902e-05 -5.93251e-05 0. 
7.911e-05 -5.93188e-05 0. 
7.92e-05 -5.93144e-05 0. 
7.929e-05 -5.93102e-05 0. 
7.93358e-05 -5.931e-05 0. 
6.7255e-05 -5.922e-05 0. 
6.732e-05 -5.92278e-05 0. 
6.741e-05 -5.92364e-05 0. 
6.75e-05 -5.92395e-05 0. 
6.759e-05 -5.92374e-05 0. 
6.768e-05 -5.92405e-05 0. 
6.777e-05 -5.9253e-05 0. 
6.786e-05 -5.92548e-05 0. 
6.795e-05 -5.92541e-05 0. 
6.804e-05 -5.92565e-05 0. 
6.813e-05 -5.92547e-05 0. 
6.822e-05 -5.92585e-05 0. 
6.831e-05 -5.9257e-05 0. 
6.84e-05 -5.92545e-05 0. 
6.849e-05 -5.92635e-05 0. 
6.858e-05 -5.92654e-05 0. 
6.867e-05 -5.92666e-05 0. 
6.876e-05 -5.92689e-05 0. 
6.885e-05 -5.92611e-05 0. 
6.894e-05 -5.92583e-05 0. 
6.903e-05 -5.92652e-05 0. 
6.912e-05 -5.92607e-05 0. 
6.921e-05 -5.92642e-05 0. 
6.93e-05 -5.92727e-05 0. 
6.939e-05 -5.92746e-05 0. 
6.948e-05 -5.92676e-05 0. 
6.957e-05 -5.92788e-05 0. 
6.966e-05 -5.92781e-05 0. 
6.975e-05 -5.92849e-05 0. 
6.984e-05 -5.92859e-05 0. 
6.993e-05 -5.92791e-05 0. 
7.002e-05 -5.92793e-05 0. 
7.011e-05 -5.92858e-05 0. 
7.02e-05 -5.92916e-05 0. 
7.029e-05 -5.92962e-05 0. 
7.038e-05 -5.92957e-05 0. 
7.047e-05 -5.92936e-05 0. 
7.056e-05 -5.9294e-05 0. 
7.065e-05 -5.92958e-05 0. 
7.074e-05 -5.9306e-05 0. 
7.083e-05 -5.93078e-05 0. 
7.11e-05 -5.93047e-05 0. 
7.119e-05 -5.93049e-05 0. 
7.128e-05 -5.93072e-05 0. 
7.146e-05 -5.93031e-05 0. 
7.155e-05 -5.93083e-05 0. 
7.938e-05 -5.93098e-05 0. 
7.947e-05 -5.93093e-05 0. 
7.956e-05 -5.93082e-05 0. 
7.965e-05 -5.93037e-05 0. 
7.974e-05 -5.92923e-05 0. 
7.983e-05 -5.92955e-05 0. 
7.992e-05 -5.9294e-05 0. 
8.001e-05 -5.92888e-05 0. 
8.01e-05 -5.92839e-05 0. 
8.019e-05 -5.92809e-05 0. 
8.028e-05 -5.9287e-05 0. 
8.037e-05 -5.92846e-05 0. 
8.046e-05 -5.92709e-05 0. 
8.055e-05 -5.92795e-05 0. 
8.064e-05 -5.92782e-05 0. 
8.073e-05 -5.92781e-05 0. 
8.082e-05 -5.92732e-05 0. 
8.091e-05 -5.9266e-05 0. 
8.1e-05 -5.92584e-05 0. 
8.109e-05 -5.92531e-05 0. 
8.118e-05 -5.9244e-05 0. 
8.127e-05 -5.9241e-05 0. 
8.136e-05 -5.92418e-05 0. 
8.145e-05 -5.92372e-05 0. 
8.154e-05 -5.92334e-05 0. 
8.163e-05 -5.92295e-05 0. 
8.17005e-05 -5.922e-05 0. 
6.56796e-05 -5.913e-05 0. 
6.57e-05 -5.91321e-05 0. 
6.579e-05 -5.91415e-05 0. 
6.588e-05 -5.91522e-05 0. 
6.597e-05 -5.91541e-05 0. 
6.606e-05 -5.91564e-05 0. 
6.615e-05 -5.91616e-05 0. 
6.624e-05 -5.9162e-05 0. 
6.633e-05 -5.91673e-05 0. 
6.642e-05 -5.91802e-05 0. 
6.651e-05 -5.91817e-05 0. 
6.66e-05 -5.9178e-05 0. 
6.669e-05 -5.91784e-05 0. 
6.678e-05 -5.91887e-05 0. 
6.687e-05 -5.91979e-05 0. 
6.696e-05 -5.92031e-05 0. 
6.705e-05 -5.92076e-05 0. 
6.714e-05 -5.92099e-05 0. 
6.723e-05 -5.9217e-05 0. 
8.172e-05 -5.92174e-05 0. 
8.181e-05 -5.92193e-05 0. 
8.19e-05 -5.92178e-05 0. 
8.199e-05 -5.92192e-05 0. 
8.208e-05 -5.92105e-05 0. 
8.217e-05 -5.92039e-05 0. 
8.226e-05 -5.92011e-05 0. 
8.235e-05 -5.92005e-05 0. 
8.244e-05 -5.91971e-05 0. 
8.253e-05 -5.9196e-05 0. 
8.262e-05 -5.9195e-05 0. 
8.271e-05 -5.91869e-05 0. 
8.28e-05 -5.91791e-05 0. 
8.289e-05 -5.91757e-05 0. 
8.298e-05 -5.91694e-05 0. 
8.307e-05 -5.91595e-05 0. 
8.316e-05 -5.91664e-05 0. 
8.325e-05 -5.91622e-05 0. 
8.334e-05 -5.91716e-05 0. 
8.343e-05 -5.9171e-05 0. 
8.352e-05 -5.91704e-05 0. 
8.361e-05 -5.91661e-05 0. 
8.37e-05 -5.91568e-05 0. 
8.379e-05 -5.91535e-05 0. 
8.388e-05 -5.91529e-05 0. 
8.397e-05 -5.91519e-05 0. 
8.406e-05 -5.91423e-05 0. 
8.415e-05 -5.91405e-05 0. 
8.424e-05 -5.91356e-05 0. 
8.42832e-05 -5.913e-05 0. 
6.4477e-05 -5.904e-05 0. 
6.453e-05 -5.90454e-05 0. 
6.462e-05 -5.90476e-05 0. 
6.471e-05 -5.90592e-05 0. 
6.48e-05 -5.90682e-05 0. 
6.489e-05 -5.90787e-05 0. 
6.498e-05 -5.9085e-05 0. 
6.507e-05 -5.90964e-05 0. 
6.516e-05 -5.91086e-05 0. 
6.525e-05 -5.91099e-05 0. 
6.534e-05 -5.91124e-05 0. 
6.543e-05 -5.91211e-05 0. 
6.552e-05 -5.91214e-05 0. 
6.561e-05 -5.91228e-05 0. 
8.433e-05 -5.91239e-05 0. 
8.442e-05 -5.91189e-05 0. 
8.451e-05 -5.91166e-05 0. 
8.46e-05 -5.91139e-05 0. 
8.469e-05 -5.91173e-05 0. 
8.478e-05 -5.91173e-05 0. 
8.487e-05 -5.91205e-05 0. 
8.496e-05 -5.91152e-05 0. 
8.505e-05 -5.91052e-05 0. 
8.514e-05 -5.90948e-05 0. 
8.523e-05 -5.90872e-05 0. 
8.532e-05 -5.90822e-05 0. 
8.541e-05 -5.90773e-05 0. 
8.55e-05 -5.90727e-05 0. 
8.559e-05 -5.90704e-05 0. 
8.568e-05 -5.90718e-05 0. 
8.577e-05 -5.90667e-05 0. 
8.586e-05 -5.90582e-05 0. 
8.595e-05 -5.90488e-05 0. 
8.60213e-05 -5.904e-05 0. 
6.34648e-05 -5.895e-05 0. 
6.354e-05 -5.89585e-05 0. 
6.363e-05 -5.89672e-05 0. 
6.372e-05 -5.89708e-05 0. 
6.381e-05 -5.89726e-05 0. 
6.39e-05 -5.89844e-05 0. 
6.399e-05 -5.89999e-05 0. 
6.408e-05 -5.90079e-05 0. 
6.417e-05 -5.90186e-05 0. 
6.426e-05 -5.90275e-05 0. 
6.435e-05 -5.90346e-05 0. 
6.444e-05 -5.90362e-05 0. 
8.604e-05 -5.90377e-05 0. 
8.613e-05 -5.90271e-05 0. 
8.622e-05 -5.90209e-05 0. 
8.631e-05 -5.90131e-05 0. 
8.64e-05 -5.90009e-05 0. 
8.649e-05 -5.89893e-05 0. 
8.658e-05 -5.89727e-05 0. 
8.667e-05 -5.8952e-05 0. 
8.66811e-05 -5.895e-05 0. 
6.30016e-05 -5.886e-05 0. 
6.309e-05 -5.88814e-05 0. 
6.318e-05 -5.89059e-05 0. 
6.327e-05 -5.89227e-05 0. 
6.336e-05 -5.89372e-05 0. 
6.345e-05 -5.89483e-05 0. 
8.676e-05 -5.89356e-05 0. 
8.685e-05 -5.89197e-05 0. 
8.694e-05 -5.89015e-05 0. 
8.703e-05 -5.88825e-05 0. 
8.712e-05 -5.88613e-05 0. 
8.71249e-05 -5.886e-05 0. 
6.26213e-05 -5.877e-05 0. 
6.264e-05 -5.87757e-05 0. 
6.273e-05 -5.87937e-05 0. 
6.282e-05 -5.88197e-05 0. 
6.291e-05 -5.88397e-05 0. 
6.3e-05 -5.88596e-05 0. 
8.721e-05 -5.88368e-05 0. 
8.73e-05 -5.88168e-05 0. 
8.739e-05 -5.87892e-05 0. 
8.74507e-05 -5.877e-05 0. 
6.23273e-05 -5.868e-05 0. 
6.237e-05 -5.86886e-05 0. 
6.246e-05 -5.87273e-05 0. 
6.255e-05 -5.87481e-05 0. 
8.748e-05 -5.87607e-05 0. 
8.757e-05 -5.87295e-05 0. 
8.766e-05 -5.86989e-05 0. 
8.76893e-05 -5.868e-05 0. 
6.22001e-05 -5.859e-05 0. 
6.228e-05 -5.86704e-05 0. 
8.775e-05 -5.86403e-05 0. 
8.77994e-05 -5.859e-05 0. 
6.21453e-05 -5.85e-05 0. 
6.219e-05 -5.85734e-05 0. 
8.784e-05 -5.85181e-05 0. 
8.78502e-05 -5.85e-05 0. 
6.21353e-05 -5.841e-05 0. 
8.78622e-05 -5.841e-05 0. 
6.21338e-05 -5.832e-05 0. 
8.7863e-05 -5.832e-05 0. 
6.21338e-05 -5.823e-05 0. 
8.78627e-05 -5.823e-05 0. 
6.21341e-05 -5.814e-05 0. 
8.7863e-05 -5.814e-05 0. 
6.21342e-05 -5.805e-05 0. 
8.7865e-05 -5.805e-05 0. 
6.2134e-05 -5.796e-05 0. 
8.78644e-05 -5.796e-05 0. 
6.21332e-05 -5.787e-05 0. 
8.78669e-05 -5.787e-05 0. 
6.21312e-05 -5.778e-05 0. 
8.78684e-05 -5.778e-05 0. 
6.21311e-05 -5.769e-05 0. 
8.78688e-05 -5.769e-05 0. 
6.21303e-05 -5.76e-05 0. 
8.78696e-05 -5.76e-05 0. 
6.21321e-05 -5.751e-05 0. 
8.78704e-05 -5.751e-05 0. 
6.21305e-05 -5.742e-05 0. 
8.78692e-05 -5.742e-05 0. 
6.21313e-05 -5.733e-05 0. 
8.78717e-05 -5.733e-05 0. 
6.21297e-05 -5.724e-05 0. 
8.78721e-05 -5.724e-05 0. 
6.21295e-05 -5.715e-05 0. 
8.78723e-05 -5.715e-05 0. 
6.21298e-05 -5.706e-05 0. 
8.78729e-05 -5.706e-05 0. 
6.21277e-05 -5.697e-05 0. 
8.78738e-05 -5.697e-05 0. 
6.21257e-05 -5.688e-05 0. 
8.78706e-05 -5.688e-05 0. 
6.21277e-05 -5.679e-05 0. 
8.78704e-05 -5.679e-05 0. 
6.21256e-05 -5.67e-05 0. 
8.78699e-05 -5.67e-05 0. 
6.2123e-05 -5.661e-05 0. 
8.78711e-05 -5.661e-05 0. 
6.21207e-05 -5.652e-05 0. 
8.78742e-05 -5.652e-05 0. 
6.21183e-05 -5.643e-05 0. 
8.78746e-05 -5.643e-05 0. 
6.21164e-05 -5.634e-05 0. 
8.78751e-05 -5.634e-05 0. 
6.21136e-05 -5.625e-05 0. 
8.78708e-05 -5.625e-05 0. 
6.21105e-05 -5.616e-05 0. 
8.78726e-05 -5.616e-05 0. 
6.21118e-05 -5.607e-05 0. 
8.78714e-05 -5.607e-05 0. 
6.21113e-05 -5.598e-05 0. 
8.78736e-05 -5.598e-05 0. 
6.21171e-05 -5.589e-05 0. 
8.78705e-05 -5.589e-05 0. 
6.21122e-05 -5.58e-05 0. 
[...]
POINT_DATA 3801
SCALARS Coverage0 float 1
LOOKUP_TABLE default
0.159632
0.159632
0.174306
0.174306
0.157362
0.157362
0.157362
0.178468
0.191137
0.155525
0.142081
0.159217
0.162016
0.179614
0.173071
0.172858
0.152019
0.148772
0.157688
0.156655
0.148177
0.130564
0.156508
0.160962
0.157811
0.162096
0.154425
0.159914
0.161125
0.169389
0.179714
0.176033
0.14501
0.13905
0.140001
0.123077
0.156565
0.162605
0.150482
0.143042
0.160999
0.149269
0.142551
0.166557
0.139111
0.161298
0.167212
0.159876
0.158014
0.153794
0.154298
0.148689
0.13743
0.155682
0.179655
0.172052
0.16451
0.154143
0.153009
0.150766
0.153988
0.123912
0.135778
0.138155
0.128366
0.147753
0.176059
0.154496
0.167923
0.175618
0.174109
0.185195
0.169034
0.173669
0.170039
0.179729
0.179871
0.179739
0.18326
0.160875
0.142774
0.162033
0.161599
0.129471
0.146651
0.156356
0.17432
0.17324
0.181164
0.149503
0.144859
0.150564
0.151853
0.135533
0.144337
0.166044
0.131397
0.152337
0.138841
0.130774
0.145043
0.163062
0.157706
0.134472
0.133178
0.167333
0.145836
0.158999
0.147254
0.172469
0.163591
0.142679
0.164236
0.14844
0.137567
0.168631
0.182337
0.176755
0.15928
0.142
0.163537
0.16778
0.159766
0.160522
0.176535
0.150694
0.157177
0.152172
0.142979
0.136288
0.14527
0.167466
0.185208
0.184609
0.15382
0.158391
0.155161
0.164663
0.168286
0.14072
0.178468
0.144337
0.150196
0.167564
0.161631
0.136806
0.150007
0.171179
0.166286
0.159667
0.150556
0.135864
0.157907
0.13715
0.143047
0.178294
0.161303
0.145431
0.167517
0.124687
0.131797
0.142145
0.141734
0.149436
0.15964
0.166798
0.17016
0.165661
0.158719
0.158719
0.175283
0.137129
0.14694
0.162155
0.169421
0.184113
0.145851
0.144738
0.133667
0.133801
0.146568
0.139772
0.144993
0.167744
0.161982
0.152885
0.166044
0.165661
0.160565
0.151953
0.165615
0.193831
0.175914
0.157723
0.171751
0.161152
0.152915
0.150546
0.15752
0.163361
0.156819
0.149822
0.15816
0.13867
0.153624
0.174447
0.142219
0.156605
0.163932
0.149758
0.159871
0.171817
0.150143
0.1424
0.152987
0.144891
0.144891
0.147743
0.135921
0.150015
0.160199
0.154326
0.146664
0.150453
0.154212
0.13631
0.143989
0.140061
0.127976
0.14183
0.157587
0.145953
0.161977
0.168928
0.172702
0.140583
0.132169
0.140595
0.141626
0.149169
0.129888
0.141462
0.157246
0.158219
0.1324
0.110865
0.143038
0.143284
0.150879
0.172069
0.155963
0.174093
0.170942
0.169152
0.129679
0.132388
0.141599
0.168719
0.167808
0.184207
0.174718
0.152296
0.147743
0.155963
0.138567
0.134466
0.163885
0.173173
0.155601
0.149293
0.146035
0.146035
0.175382
0.182671
0.170965
0.153579
0.174054
0.174093
0.163386
0.157636
0.171877
0.202956
0.174382
0.174382
0.201027
0.201027
0.190952
0.184388
0.166796
0.175382
0.148948
0.165835
0.183764
0.20162
0.229727
0.229727
0.222384
0.202101
0.20162
0.231764
0.246334
0.246334
0.355311
0.291338
0.277085
0.282666
0.526226
0.355311
0.443399
0.443399
0.676816
0.852149
0.745327
0.987971
0.301065
0.699825
0.985486
0.772204
0.938748
0.867387
0.900099
0.687271
0.921342
0.902779
0.943196
0.650041
0.874266
0.896437
0.748388
0.959428
0.751687
0.978219
0.932354
0.944282
0.906796
0.959055
0.933646
0.951987
0.959951
0.847736
0.966981
0.847513
0.909899
0.924157
0.912783
0.975227
0.947399
0.872941
0.699861
0.831493
0.556198
0.839473
0.780547
0.829626
0.830122
0.852183
0.776984
0.882285
0.722679
0.824464
0.935965
0.88584
1
0.879078
0.994237
0.861686
0.988289
0.942937
0.698614
0.860286
0.786701
0.913461
0.848659
0.717891
0.802155
0.695464
0.436344
0.900692
0.707366
0.998201
0.877605
0.925433
0.959845
0.956587
0.936418
0.98777
0.791078
0.82638
0.67413
0.0497126
0.388557
0.589308
0.767865
0.972265
0.75247
0.934191
0.889523
0.963385
0.96709
0.96709
0.989545
0.96709
0.941327
0.674449
0.918386
0.941327
0.618831
0.890434
0.68694
0.874719
0.391766
0.96538
0.795795
0
0
0.808689
0.758514
0.946232
0.523053
0.948732
0.727106
0.966311
0.950044
0.961788
0.83491
0.942736
0.69586
0.83491
0.977433
0.740575
0.845045
0.794885
0.731495
0.936845
0.9484
0.847099
0.978519
0.978201
0.940904
0.992859
0.830499
1
0.907261
1
0.797043
1
0.865399
0.97735
0.878668
0.971301
0.897251
0.996236
0
0.767662
0.761006
0.325773
0.79057
0.948422
0
0.99332
0.450072
0.900179
0.723185
0.885838
0.866624
0.996122
0.974702
1
0.876821
0.958633
0.728465
0.679211
0.841014
0.883111
0.409782
0.997731
0.292153
0.810042
0.848331
0.887438
0.780048
0.765803
0.843056
0.732982
0.917376
0.939202
0.294689
0
0.726777
0.69098
0.939335
0.911041
0.91458
0.993698
0.748223
0.496979
0.544668
0.502947
0
0
0.891603
0
1
0.801932
1
0.824706
0.866361
0.906778
0.905324
0.9417
0
0.779982
0.840094
0.731486
0.8392
0.787446
1
0.845785
0.998762
1
0.941557
0
0.838578
0.370216
0.623624
0.912789
0.659955
0.902608
0.794623
0
0.795092
0.727991
0.865412
0.860118
0.799937
0.863841
0.4776
0.912895
0.667841
0
0.823673
1
0
0
0.586641
0.819703
0.807707
0
0
0.995661
0.750174
0.809086
0.681899
0.836274
0.926377
0.700727
0.765769
0.606901
0.849374
0.9237
0.941438
0.941731
0.939167
0.699149
0.983252
0.782018
0.848943
0.746117
0.848943
0.875272
0.737203
0.817172
0
0.854099
1
0.937752
1
0
1
0.760998
0.834646
0.884395
0.442827
0.900065
0.919194
0
0.94599
0
0.836783
0.961965
0.639325
0.8542
0.980095
0.908142
0.643946
0.813938
0.856787
0
0.888174
0.870523
0.904983
0.727095
0
1
0.82364
0.932419
0.782959
0.786795
0.900159
0.812292
0.879977
0.74424
0.86663
0.809538
0.707425
0.72265
0.691641
0.823191
1
0.884452
1
1
1
0
0.998393
0.920497
0.744534
0.873146
0.71772
0
0.782067
0
0.942993
0.782067
0.897466
0.938979
0.980819
0.805613
1
0.843956
1
0
1
0.922335
0.922335
0.925259
0.787862
0.922335
0.73454
1
0.721742
0.570283
0.965584
1
0.957767
0.737292
0.929863
0.730112
0.929863
1
0.802642
0
0.85297
0
0.789904
0
0.842811
1
0
1
1
1
0
1
1
0
0
0.60707
1
0.534691
1
0
0
0.890553
0
0
0.879997
0
0
1
1
0
1
0.882443
0.882443
1
0.83302
0.882443
0.796811
0.761036
0.831791
0
0.727927
0.917677
0.917677
0.84728
0.833872
0.917677
0.84728
1
0.812931
1
0.998912
0.95015
0.869126
0.903189
0.869126
0
0
0
1
0
1
0
1
1
1
0
0.795429
0
0.884413
0
1
1
0
0
1
1
0
0.897157
0.771991
0
0.897157
0
0
0
0
0.696623
1
0
0.696623
0.895547
0
0
0.894089
0.86485
0.937317
0.89072
0.901668
0
0
0.901668
1
0
1
1
1
0.885704
0.907746
0.883365
0.907746
1
0
0.883365
0
0
1
1
1
0.800869
1
0.863351
0.863351
1
0
1
0
0.9534
0.941017
0.876752
0.876752
0.722355
0
0.824797
0
0
1
0.87529
1
0.948943
0.739042
0.835808
0.835808
0.678681
0.791225
0.678681
0.76924
1
1
1
0
0
0
0.893465
0.893465
1
0
0
0.893465
1
1
1
0
0
0
0
1
1
1
0.755229
0
0.833792
0.833792
1
0
0.683582
0.683582
0
0.822118
1
0.683582
0.885437
0.885437
0
1
1
1
0.877789
0.877789
1
1
0.829248
0.606511
0.820453
1
0.606511
0.857189
1
1
0.851539
0.992443
0.892173
0.764413
1
0
0
0.894887
0
0
0.874242
0.742434
0.874242
0
0.709474
0
1
0.709474
0
0.819284
0
0
1
1
1
0
0
0.890984
0.859622
0.871177
1
1
0.833233
0.871177
1
0
0
1
0.863737
1
0.977899
1
1
0.785408
0.919272
0.919272
0.798147
1
1
0.919272
0.798147
0.776808
0
0
0
0
0
1
0
1
0
0
0
0
0
0
0
0.85718
0
0
0
1
0
0
0
0
0
1
0
1
0
1
1
1
1
0
0
0
0
0
1
1
1
1
0
0.807872
0.807872
0
0.946737
0.946737
1
1
0.729171
0.946737
1
1
1
0.729171
0
1
0.832146
0.832146
1
1
0.832146
1
1
0.623356
0
0
0.864596
0.864596
0
0
0
0
1
0
0.995992
1
0
0.847299
0.847299
0
0
0.833309
0.833309
0
0
1
0.833309
0.727102
0.727102
1
1
1
1
1
1
1
0
0
0.912179
0.912179
1
1
0.912179
1
1
0
0.955184
0.950358
1
0
0.981631
0.981631
0.955184
0.831664
0
0
0.767605
0.767605
0.981631
0.831664
1
0
0.767605
0.966915
0.936405
1
0
0
0.966915
0.78093
0.78093
1
0.78093
0.82808
0
0.949726
0.949726
0
0.95203
0
0
0
0
0
0.884912
0
0
1
0.960948
0.805772
0.805772
1
1
0.960948
0.805772
0.924332
1
0
1
1
0
1
0
0.89531
1
0
0.89531
0
0
0
1
0.913783
1
1
0
0
0.913783
0
0
0
0.886274
1
0.886274
0.59692
1
0.643998
1
1
0.643998
1
1
1
0
1
0.736067
1
0
0
0.736067
1
1
0
0
0.978529
0.978529
1
0.748537
0.978529
1
1
0.717966
1
0.675231
0.846631
0.657569
0.675231
0.846631
0
1
1
0
0
1
1
1
0.886578
0.886578
0
0
1
0.886578
0
0
1
0
0
1
1
0
0
1
0
0.784379
1
1
0
0
0
1
1
0
0
0
0
0
0.542839
0
0.542839
1
1
0
0
0
1
0
0
0
0
0
0.969847
0.969847
1
1
0.969847
0
1
1
1
0
0
1
0
0
1
1
1
0
1
0.985445
0.985445
0
0.728076
0.728076
0.985445
0
0.778279
1
0
0
0
0
0
0
0
0
0
0
0
0
0.702356
0.88693
0.88693
0.812945
0
0
0
0
0.88693
0.812945
0.651768
0
0
0.720203
0
0.720203
0.810008
0
0
1
1
1
0
1
0
1
1
0
0.947923
0.947923
1
0
0
0.862812
0.947923
0.745183
0.745183
0
0
0.795894
0.795894
0.745183
0.760893
0
0
0
0
1
0
0
0
0
1
1
0
1
0
1
1
0
1
0.93986
1
0.826235
0.826235
1
0.838895
1
1
0.934737
0
0.934737
1
0
0
0
0.941841
0
0
0
1
0.941841
0
0
1
0.774673
0
0
1
1
0
0
1
0
0
0
0
1
0
1
0.847865
1
0
0.847865
0.791733
0
0
0
0
0
0
0
1
1
0
0
0.859136
0.859136
1
0
0.862472
0.862472
0.859136
0
0
0.863186
0.875375
0.875375
1
1
1
1
1
1
0
1
0
0
0
0
0
0
0
0.871548
0
1
1
1
1
1
0
0.905094
0.905094
0
0
0
0
0
0
0.481744
0.905094
1
0
0
0.481744
1
1
0
1
0
1
1
0
1
0
1
0
1
1
1
0.645226
1
1
1
1
0
1
1
1
1
1
1
0
0.792929
0.792929
1
0
1
0.792929
1
0
1
0
1
1
0
0.934863
0.934863
0
0.608324
0.586219
0.934863
0
0
0
0.608324
0.952334
0.952334
0
1
0.9772
0.9772
0.952334
0.991789
1
0.630414
0.630414
0.9772
1
0
0
0
0
1
1
0.843876
0.843876
0
1
1
1
0.843876
1
0
0
0
0.625077
0.625077
1
0
0
0
0
0
0.625077
0
0
0
1
0
1
1
1
1
1
1
0
0
1
0
1
0.912209
0.912209
0
0
1
0.912209
0.810376
1
1
1
1
0
0.810376
0
0
0
0
1
0
0.986896
0.986896
0
0.767422
0.767422
0.986896
0
0
0
0
0
0
0
0.835894
0.835894
0
0.801298
0.835894
0
0
0
0
0
0.801298
0
1
0
0
0.842313
0.842313
0
0
0.780989
0.842313
0
0.78683
1
0.785823
1
1
0.785823
1
1
1
1
0
0
0
1
1
0
0.854919
0.854919
1
0.993901
0.993901
0.75351
0
0
0
1
0.993901
0.75351
0
0
1
0
0
1
0
1
1
0
1
0
0.934445
0.934445
1
1
0
1
0.934445
1
0
1
1
1
0
1
1
1
0
0
0
1
0
0.996532
0.996532
1
0.834742
0.834742
0.996532
0.937081
0.937081
0
1
0.834742
0.728142
0.937081
0.807169
0.925761
0.84027
0.728142
0.925761
1
1
0
1
0
0
0
1
1
0
0
0.873792
0.873792
0.685229
0
0.967562
0
0
0.967562
1
1
1
0
1
0
1
1
1
0
1
0
1
0
0
1
0
1
1
1
0
1
0
0
1
1
1
0
1
0.813859
1
0.796877
0.796877
1
1
0
1
1
1
0.788665
0
0
1
0
0
0
0
0
0
0.938818
0.938818
0
0
1
0.938818
0.631537
0.81192
1
0.81192
0
0
1
1
1
0.872096
0.872096
1
0
0.903604
0.872096
0.770344
0.848457
0.848457
0.770344
0.706112
0.861774
0
0
0
0
0
1
0.861774
0
0.974343
0
0
0.974343
0.678872
0
0.867528
0
0.867528
0
0
0
0
0
0
0
0
0
1
0
0
0
0
0
0
1
0
1
0
1
0.933364
1
0.933364
0
1
0
0
0
0
0
1
1
0.543594
0.808946
0.808946
1
0
1
1
0
0.543594
0.808946
0
0
0
1
0
0
1
0
1
0.955909
0.955909
0.944341
1
0.563442
0.955909
0.944341
0
0
1
0
0
1
1
0
0
0
0
1
0
1
0
0
0
0
1
0
0.988609
0.988609
0
0
0.75025
0.75025
0.988609
1
0
0
0.960531
0.75025
1
1
0
0.90626
0.883736
0.883736
0.825912
0.825912
0.883736
1
1
1
0.755529
0
0
1
1
1
1
0.858055
1
0.858055
0
0
1
0
1
0
0
0
0.969774
0.969774
0.723879
1
0
0
0
0
0.969774
0.723879
0.963978
1
0.963978
1
1
1
1
1
0
1
1
0.995606
0.995606
0
0
0
1
1
0.995606
0.772104
0
0
0.799693
0.799693
0
0
0
1
1
0
0.812669
0.812669
1
0
0
0.812669
1
1
0
0.74948
0.98592
1
0.517865
0.74948
1
1
1
0
0.517865
0
0
1
0
1
0
0.998891
0.998891
0.899316
0
0
1
0.998891
0
0
0
1
1
0
0
0
0
1
1
1
1
1
0
1
1
1
1
0
1
1
1
1
0
0.995779
0.995779
1
0
0.995779
0.839608
0
0
0.839608
1
1
0
0
0.946201
0.946201
1
0.805484
0.805484
0.946201
0
1
0
0
0.985487
0
1
1
1
0.985487
0
1
0
1
1
0
0
0.760668
0
0
0.680634
0.680634
0
0
1
1
0
0.98332
0.98332
0
0
0.98332
1
0
0
1
0
0
0
0.98609
0.840627
0.840627
0
0.754563
0.754563
0.98609
0.840627
0
0
0.754563
0.743107
1
1
1
0.91249
0.743107
0.784596
0.784596
0
0
0
1
1
0
1
1
0
1
0
0.853976
1
0.916562
0.916562
0
0
0
1
0
0
0
1
1
0
0
0
1
0
0
1
1
0.814266
0.814266
0
0
0.798017
0.814266
0.763114
1
0.798017
0.763114
1
1
1
0.772246
0
0
0.772246
0
1
0.740621
0.740621
1
0.874121
0.740621
1
1
0.777942
1
1
0.690177
0.690177
1
0
1
1
0
1
0
1
1
0
1
1
0
1
0
1
0
0
0.977807
0.977807
1
0
0.977807
0.903326
0.83292
0
0
0
0
0
0.807128
0.807128
0.885416
0.885416
0
1
0
0
0
0.991426
0.807128
0.885416
0
0
0
0.956418
1
1
1
1
0.956418
1
0
0
0
0
1
0
0
1
0
1
0
0
1
0.897851
1
1
1
0.883539
0.883539
1
1
1
0
0
0.878803
0
0.982559
0.982559
1
0.854689
0.878803
0
0.982559
0
0
1
1
1
0
0
0
0.861158
0
0
1
0
0
0
0.995427
0.995427
1
0
0.995427
0.431596
1
0.825359
0
0.886861
0.886861
0
0
1
1
1
1
0.913009
0.913009
1
0
0
0
1
0.913009
0
1
1
0.836633
0.836633
0
0
1
1
0.836633
0.635763
1
1
0.983085
0.983085
0.635763
0
1
1
1
1
1
0.983085
0
0
0
0
0
0
1
1
1
1
1
0
1
1
1
1
0.840377
0
0
0
0
0
0.840377
1
1
0
1
1
0
0
1
0
0
0.973724
0.973724
0.993163
0
1
0.973724
0.993163
0.78638
0.78638
0
0
1
0
0
1
0
0
0
0
0
0
0.969022
0.969022
0
0
0.706395
0.82615
0.969022
0
0
0
1
1
1
0.875765
0
0
0.770497
0
0
0.770497
0.737023
0
0
0.82931
0
0
1
0
1
0.954121
0.954121
0
0.840644
1
0.977962
0.977962
0.954121
0
0.840644
0.548996
0.548996
1
0.822183
0.977962
1
0
1
0.561158
0.561158
0.954372
1
0
0.561158
0.954372
0.739713
0.739713
1
0
1
0.980456
0.980456
1
0.988947
0.988947
0.980456
0.799219
0
0.988947
0
0
0
0
0
0
0
0
1
0.843551
0.843551
1
0.708232
0.843551
1
0.90177
1
1
0
0.708232
0.90177
0.740099
1
1
0.852163
1
1
0.901984
0
0
1
0
0
0
0
0
0
1
0.830058
0.830058
0
0
0
0.713142
1
0
1
1
1
1
0.863552
0.993488
1
0
0.863552
0.665186
0.665186
0
0.984448
0.994191
0.994191
1
0.735413
0.735413
0.984448
0.994191
0.784222
0.637181
0.800802
0.800802
0
0
0.637181
0
0
1
0.789347
0.789347
0.779786
0.779786
0
0.888493
0.888493
0.520483
0.789347
0.779786
0.767498
0.767498
0
0.816785
1
0.927315
0.927315
0.903706
0.717329
0.717329
0.440395
0.927315
1
0.717329
0.622634
0.66632
0.386874
0.376241
0.351232
0.350869
0.36942
0.360156
0.3652
0.383854
0.373845
0.373511
0.363443
0.373092
0.368759
0.340663
0.361194
0.359684
0.385246
0.368405
0.340876
0.367407
0.374166
0.359033
0.363267
0.356235
0.374661
0.388117
0.390032
0.354851
0.369316
0.357089
0.367971
0.350199
0.338589
0.372919
0.363201
0.357333
0.367048
0.369583
0.349371
0.358326
0.36607
0.3556
0.369122
0.3817
0.362273
0.34887
0.35907
0.370826
0.37071
0.375734
0.370965
0.382091
0.380962
0.365945
0.372995
0.338907
0.366148
0.383446
0.381706
0.367016
0.364581
0.359531
0.370251
0.357399
0.360862
0.371959
0.369253
0.358767
0.366707
0.384193
0.362661
0.36719
0.37378
0.355993
0.368681
0.359497
0.38724
0.372162
0.366217
0.357139
0.381498
0.363867
0.352858
0.381404
0.371554
0.372184
0.355232
0.356411
0.358284
0.362203
0.360638
0.379768
0.35348
0.366502
0.372029
0.348106
0.367869
0.369543
0.364796
0.355216
0.370598
0.370688
0.380224
0.376756
0.374267
0.389355
0.344455
0.36007
0.378502
0.381676
0.36549
0.351609
0.351482
0.361692
0.379474
0.370899
0.368467
0.371147
0.383922
0.356937
0.3689
0.377653
0.367292
0.370958
0.359053
0.363968
0.356977
0.358499
0.381773
0.365283
0.362188
0.354637
0.376031
0.362105
0.366718
0.358693
0.372229
0.371972
0.368146
0.370167
0.364706
0.359467
0.376143
0.391603
0.351988
0.361901
0.364049
0.379982
0.355021
0.364837
0.361703
0.370064
0.358484
0.385977
0.375172
0.351861
0.366416
0.360198
0.371711
0.361106
0.354232
0.371021
0.384852
0.361555
0.368841
0.357539
0.359375
0.362659
0.375958
0.352205
0.355717
0.357016
0.385747
0.366175
0.366295
0.36664
0.37083
0.376464
0.348608
0.350227
0.366721
0.377439
0.378205
0.35995
0.360872
0.377012
0.354482
0.350433
0.371157
0.370549
0.361369
0.36866
0.369886
0.35948
0.362009
0.368754
0.369568
0.382739
0.364757
0.355867
0.353145
0.380836
0.375155
0.365731
0.369918
0.347091
0.361797
0.369879
0.371823
0.362525
0.346194
0.360345
0.370332
0.362991
0.359305
0.379143
0.362777
0.367878
0.355221
0.341797
0.357762
0.388406
0.361389
0.369973
0.363629
0.374706
0.361274
0.361583
0.362792
0.354519
0.35244
0.354932
0.375091
0.389999
0.363781
0.371384
0.372228
0.369305
0.371027
0.384817
0.379467
0.385732
0.367436
0.357455
0.361388
0.365843
0.376521
0.374344
0.363144
0.356916
0.35898
0.38037
0.362156
0.353573
0.368132
0.370986
0.375046
0.382183
0.377563
0.359924
0.354202
0.342884
0.348296
0.353628
0.36585
0.36149
0.369064
0.362618
0.372348
0.374026
0.367592
0.360479
0.374788
0.360732
0.354432
0.375459
0.36503
0.36323
0.355752
0.368566
0.373736
0.367117
0.361761
0.359701
0.357586
0.369391
0.380706
0.36164
0.369841
0.35909
0.364527
0.355829
0.367316
0.353976
0.365331
0.377387
0.369279
0.362773
0.374391
0.354436
0.360414
0.375114
0.383629
0.364695
0.380295
0.354362
0.357405
0.383147
0.362431
0.369186
0.367139
0.357945
0.359968
0.375624
0.359455
0.352568
0.373257
0.361852
0.355404
0.361779
0.355168
0.335292
0.365201
0.387095
0.384357
0.371203
0.356696
0.348385
0.360926
0.373087
0.365632
0.377197
0.368095
0.375667
0.3613
0.36491
0.364233
0.362184
0.368306
0.367049
0.357502
0.368184
0.366019
0.363848
0.363715
0.373498
0.379299
0.357177
0.387107
0.382045
0.385785
0.358363
0.375379
0.370893
0.35468
0.358496
0.366372
0.366367
0.349104
0.36612
0.360112
0.385204
0.362941
0.36463
0.363341
0.371065
0.374172
0.380035
0.367406
0.354757
0.373506
0.374143
0.36558
0.372625
0.37057
0.362838
0.348932
0.349772
0.358298
0.366994
0.36416
0.366758
0.36341
0.382527
0.382242
0.376413
0.346812
0.361144
0.355661
0.364056
0.361058
0.359562
0.376481
0.359447
0.371078
0.369249
0.360263
0.358766
0.35099
0.38445
0.369443
0.359998
0.358376
0.375467
0.364774
0.389666
0.367681
0.352128
0.369424
0.364309
0.350942
0.376932
0.373653
0.352661
0.386539
0.378559
0.357681
0.369229
0.369349
0.383215
0.341567
0.359081
0.376011
0.369351
0.374493
0.361656
0.360476
0.357962
0.371963
0.360546
0.366398
0.354001
0.375864
0.364334
0.35222
0.35923
0.38332
0.373192
0.361788
0.363436
0.364412
0.384704
0.364356
0.358554
0.357875
0.363701
0.360532
0.358788
0.35961
0.358141
0.378284
0.366765
0.371082
0.374951
0.361718
0.367775
0.361826
0.385961
0.374885
0.352398
0.364814
0.345345
0.348536
0.374459
0.373931
0.373881
0.39848
0.376
0.366413
0.366608
0.366377
0.369057
0.366833
0.374093
0.346915
0.350121
0.366464
0.377046
0.35807
0.354573
0.380629
0.359219
0.347231
0.374504
0.35232
0.349336
0.359114
0.365341
0.370903
0.380858
0.371741
0.376752
0.382629
0.366612
0.359557
0.364209
0.365672
0.374639
0.345885
0.367867
0.365856
0.364864
0.371333
0.388391
0.358655
0.361909
0.346669
0.36476
0.36195
0.387792
0.374001
0.374727
0.368688
0.370515
0.357694
0.352665
0.354965
0.36367
0.358849
0.348277
0.365697
0.375919
0.359136
0.361502
0.372742
0.380121
0.362297
0.366692
0.382165
0.372834
0.371509
0.366135
0.352268
0.364695
0.379305
0.354735
0.366809
0.380025
0.366537
0.375903
0.36588
0.368154
0.368364
0.369081
0.377113
0.357781
0.366261
0.357968
0.382918
0.363
0.369097
0.362778
0.345213
0.364387
0.372166
0.375052
0.38083
0.364564
0.364334
0.343129
0.359887
0.366184
0.374777
0.380789
0.360593
0.369055
0.358542
0.379023
0.36679
0.367112
0.356352
0.362421
0.376396
0.377762
0.352409
0.362708
0.362055
0.354752
0.373117
0.375974
0.373402
0.354537
0.363126
0.351979
0.372658
0.354179
0.363678
0.365688
0.367119
0.378645
0.368972
0.341877
0.367994
0.361398
0.365701
0.377747
0.370582
0.357894
0.347735
0.367722
0.380936
0.372784
0.366619
0.368252
0.354307
0.347417
0.360231
0.375443
0.367089
0.367097
0.363628
0.373085
0.372734
0.377901
0.364114
0.368024
0.381656
0.37363
0.35047
0.355435
0.367544
0.361783
0.369285
0.377633
0.384508
0.354979
0.335411
0.357186
0.363477
0.378137
0.384442
0.36397
0.357782
0.372101
0.340754
0.356608
0.369192
0.358909
0.355046
0.366253
0.377015
0.369517
0.381857
0.370477
0.376392
0.357937
0.377414
0.366753
0.379923
0.359356
0.389362
0.368737
0.34974
0.353483
0.358363
0.363812
0.372228
0.343566
0.347417
0.393844
0.387954
0.367353
0.367577
0.362785
0.363137
0.349199
0.405101
0.382065
0.359489
0.381292
0.379873
0.365238
0.367879
0.371475
0.364451
0.366945
0.365095
0.368549
0.35826
0.374398
0.35364
0.359682
0.385395
0.368148
0.355074
0.359672
0.370108
0.370116
0.365798
0.354331
0.367604
0.378777
0.359312
0.367109
0.370258
0.368055
0.378165
0.359116
0.370241
0.366493
0.350586
0.377581
0.374403
0.355341
0.394404
0.360385
0.354148
0.359154
0.38406
0.360913
0.375083
0.373887
0.355791
0.366393
0.369986
0.375028
0.349745
0.35574
0.364372
0.344693
0.369213
0.366145
0.375691
0.385237
0.362256
0.365698
0.365664
0.388788
0.367942
0.367213
0.376801
0.368249
0.363571
0.359943
0.372346
0.376702
0.373108
0.350775
0.367623
0.35759
0.378964
0.366778
0.376231
0.373636
0.374119
0.357049
0.350135
0.367174
0.374886
0.364217
0.382335
0.368096
0.364222
0.379759
0.365993
0.362155