# vtk DataFile Version 2.0
2D Surface
ASCII
DATASET UNSTRUCTURED_GRID
POINTS 1737 float
6.02455e-05 -2.43e-06 0. 
6.03e-05 -2.43725e-06 0. 
6.03701e-05 -2.43e-06 0. 
6.17139e-05 -2.43e-06 0. 
6.174e-05 -2.43384e-06 0. 
6.183e-05 -2.43483e-06 0. 
6.192e-05 -2.43143e-06 0. 
6.19815e-05 -2.43e-06 0. 
6.20294e-05 -2.43e-06 0. 
6.21e-05 -2.43241e-06 0. 
6.219e-05 -2.4368e-06 0. 
6.228e-05 -2.43544e-06 0. 
6.237e-05 -2.43172e-06 0. 
6.246e-05 -2.43832e-06 0. 
6.255e-05 -2.43707e-06 0. 
6.264e-05 -2.4404e-06 0. 
6.273e-05 -2.43756e-06 0. 
6.282e-05 -2.43635e-06 0. 
6.291e-05 -2.43824e-06 0. 
6.3e-05 -2.43877e-06 0. 
6.309e-05 -2.44096e-06 0. 
6.318e-05 -2.43952e-06 0. 
6.327e-05 -2.44508e-06 0. 
6.336e-05 -2.44935e-06 0. 
6.345e-05 -2.4451e-06 0. 
6.354e-05 -2.44518e-06 0. 
6.363e-05 -2.44502e-06 0. 
6.372e-05 -2.44903e-06 0. 
6.381e-05 -2.45149e-06 0. 
6.39e-05 -2.45287e-06 0. 
6.399e-05 -2.45351e-06 0. 
6.408e-05 -2.44974e-06 0. 
6.417e-05 -2.44883e-06 0. 
6.426e-05 -2.44974e-06 0. 
6.435e-05 -2.45311e-06 0. 
6.444e-05 -2.45423e-06 0. 
6.453e-05 -2.45007e-06 0. 
6.462e-05 -2.45295e-06 0. 
6.471e-05 -2.4561e-06 0. 
6.48e-05 -2.45221e-06 0. 
6.489e-05 -2.4526e-06 0. 
6.498e-05 -2.45507e-06 0. 
6.507e-05 -2.45445e-06 0. 
6.516e-05 -2.45712e-06 0. 
6.525e-05 -2.45245e-06 0. 
6.534e-05 -2.45244e-06 0. 
6.543e-05 -2.44946e-06 0. 
6.552e-05 -2.4556e-06 0. 
6.561e-05 -2.45691e-06 0. 
6.57e-05 -2.45277e-06 0. 
6.579e-05 -2.4533e-06 0. 
6.588e-05 -2.4546e-06 0. 
6.597e-05 -2.45643e-06 0. 
6.606e-05 -2.46251e-06 0. 
6.615e-05 -2.45587e-06 0. 
6.624e-05 -2.45344e-06 0. 
6.633e-05 -2.46082e-06 0. 
6.642e-05 -2.46032e-06 0. 
6.651e-05 -2.4557e-06 0. 
6.66e-05 -2.45195e-06 0. 
6.669e-05 -2.45596e-06 0. 
6.678e-05 -2.46263e-06 0. 
6.687e-05 -2.46486e-06 0. 
6.696e-05 -2.45911e-06 0. 
6.705e-05 -2.45556e-06 0. 
6.714e-05 -2.457e-06 0. 
6.723e-05 -2.45387e-06 0. 
6.732e-05 -2.46101e-06 0. 
6.741e-05 -2.46067e-06 0. 
6.75e-05 -2.45793e-06 0. 
6.759e-05 -2.45163e-06 0. 
6.768e-05 -2.45383e-06 0. 
6.777e-05 -2.45665e-06 0. 
6.786e-05 -2.45314e-06 0. 
6.795e-05 -2.45511e-06 0. 
6.804e-05 -2.46001e-06 0. 
6.813e-05 -2.46187e-06 0. 
6.822e-05 -2.45703e-06 0. 
6.831e-05 -2.45357e-06 0. 
6.84e-05 -2.45855e-06 0. 
6.849e-05 -2.45942e-06 0. 
6.858e-05 -2.45672e-06 0. 
6.867e-05 -2.45387e-06 0. 
6.876e-05 -2.45387e-06 0. 
6.885e-05 -2.45268e-06 0. 
6.894e-05 -2.46452e-06 0. 
6.903e-05 -2.46802e-06 0. 
6.912e-05 -2.46373e-06 0. 
6.921e-05 -2.45655e-06 0. 
6.93e-05 -2.456e-06 0. 
6.939e-05 -2.45805e-06 0. 
6.948e-05 -2.46019e-06 0. 
6.957e-05 -2.46166e-06 0. 
6.966e-05 -2.45897e-06 0. 
6.975e-05 -2.45943e-06 0. 
6.984e-05 -2.45569e-06 0. 
6.993e-05 -2.45909e-06 0. 
7.002e-05 -2.4558e-06 0. 
7.011e-05 -2.46283e-06 0. 
7.02e-05 -2.46075e-06 0. 
7.029e-05 -2.45936e-06 0. 
7.038e-05 -2.45764e-06 0. 
7.047e-05 -2.46168e-06 0. 
7.056e-05 -2.4565e-06 0. 
7.065e-05 -2.45474e-06 0. 
7.074e-05 -2.45513e-06 0. 
7.083e-05 -2.4546e-06 0. 
7.092e-05 -2.45988e-06 0. 
7.101e-05 -2.46145e-06 0. 
7.11e-05 -2.46604e-06 0. 
7.119e-05 -2.46187e-06 0. 
7.128e-05 -2.45757e-06 0. 
7.137e-05 -2.45473e-06 0. 
7.146e-05 -2.45739e-06 0. 
7.155e-05 -2.46026e-06 0. 
7.164e-05 -2.45913e-06 0. 
7.173e-05 -2.4629e-06 0. 
7.182e-05 -2.45947e-06 0. 
7.191e-05 -2.45668e-06 0. 
7.2e-05 -2.45454e-06 0. 
7.209e-05 -2.45817e-06 0. 
7.218e-05 -2.45917e-06 0. 
7.227e-05 -2.4599e-06 0. 
7.236e-05 -2.45805e-06 0. 
7.245e-05 -2.46362e-06 0. 
7.254e-05 -2.45863e-06 0. 
7.263e-05 -2.45763e-06 0. 
7.272e-05 -2.45803e-06 0. 
7.281e-05 -2.45528e-06 0. 
7.29e-05 -2.45753e-06 0. 
7.299e-05 -2.45365e-06 0. 
7.308e-05 -2.45782e-06 0. 
7.317e-05 -2.46244e-06 0. 
7.326e-05 -2.4608e-06 0. 
7.335e-05 -2.45461e-06 0. 
7.344e-05 -2.45479e-06 0. 
7.353e-05 -2.4612e-06 0. 
7.362e-05 -2.45678e-06 0. 
7.371e-05 -2.45783e-06 0. 
7.38e-05 -2.45814e-06 0. 
7.389e-05 -2.46077e-06 0. 
7.398e-05 -2.45616e-06 0. 
7.407e-05 -2.45539e-06 0. 
7.416e-05 -2.45304e-06 0. 
7.425e-05 -2.46096e-06 0. 
7.434e-05 -2.45908e-06 0. 
7.443e-05 -2.45623e-06 0. 
7.452e-05 -2.45829e-06 0. 
7.461e-05 -2.45917e-06 0. 
7.47e-05 -2.4589e-06 0. 
7.479e-05 -2.45681e-06 0. 
7.488e-05 -2.45737e-06 0. 
7.497e-05 -2.45705e-06 0. 
7.506e-05 -2.46112e-06 0. 
7.515e-05 -2.46246e-06 0. 
7.524e-05 -2.45767e-06 0. 
7.533e-05 -2.45227e-06 0. 
7.542e-05 -2.45933e-06 0. 
7.551e-05 -2.45939e-06 0. 
7.56e-05 -2.45612e-06 0. 
7.569e-05 -2.45657e-06 0. 
7.578e-05 -2.45571e-06 0. 
7.587e-05 -2.46043e-06 0. 
7.596e-05 -2.46053e-06 0. 
7.605e-05 -2.46492e-06 0. 
7.614e-05 -2.4677e-06 0. 
7.623e-05 -2.45968e-06 0. 
7.632e-05 -2.4586e-06 0. 
7.641e-05 -2.4548e-06 0. 
7.65e-05 -2.4536e-06 0. 
7.659e-05 -2.4591e-06 0. 
7.668e-05 -2.46194e-06 0. 
7.677e-05 -2.461e-06 0. 
7.686e-05 -2.45414e-06 0. 
7.695e-05 -2.45787e-06 0. 
7.704e-05 -2.45685e-06 0. 
7.713e-05 -2.45945e-06 0. 
7.722e-05 -2.46239e-06 0. 
7.731e-05 -2.46229e-06 0. 
7.74e-05 -2.45625e-06 0. 
7.749e-05 -2.45925e-06 0. 
7.758e-05 -2.45704e-06 0. 
7.767e-05 -2.45373e-06 0. 
7.776e-05 -2.46178e-06 0. 
7.785e-05 -2.45986e-06 0. 
7.794e-05 -2.45992e-06 0. 
7.803e-05 -2.45918e-06 0. 
7.812e-05 -2.46161e-06 0. 
7.821e-05 -2.4613e-06 0. 
7.83e-05 -2.4531e-06 0. 
7.839e-05 -2.46052e-06 0. 
7.848e-05 -2.46087e-06 0. 
7.857e-05 -2.46134e-06 0. 
7.866e-05 -2.46237e-06 0. 
7.875e-05 -2.45761e-06 0. 
7.884e-05 -2.46171e-06 0. 
7.893e-05 -2.46156e-06 0. 
7.902e-05 -2.45526e-06 0. 
7.911e-05 -2.46134e-06 0. 
7.92e-05 -2.46105e-06 0. 
7.929e-05 -2.45732e-06 0. 
7.938e-05 -2.4553e-06 0. 
7.947e-05 -2.45886e-06 0. 
7.956e-05 -2.46459e-06 0. 
7.965e-05 -2.46112e-06 0. 
7.974e-05 -2.45828e-06 0. 
7.983e-05 -2.45943e-06 0. 
7.992e-05 -2.45537e-06 0. 
8.001e-05 -2.45757e-06 0. 
8.01e-05 -2.45531e-06 0. 
8.019e-05 -2.45679e-06 0. 
8.028e-05 -2.45429e-06 0. 
8.037e-05 -2.45648e-06 0. 
8.046e-05 -2.45429e-06 0. 
8.055e-05 -2.45705e-06 0. 
8.064e-05 -2.45819e-06 0. 
8.073e-05 -2.46285e-06 0. 
8.082e-05 -2.45971e-06 0. 
8.091e-05 -2.45686e-06 0. 
8.1e-05 -2.45509e-06 0. 
8.109e-05 -2.45964e-06 0. 
8.118e-05 -2.46114e-06 0. 
8.127e-05 -2.4635e-06 0. 
8.136e-05 -2.46094e-06 0. 
8.145e-05 -2.45861e-06 0. 
8.154e-05 -2.45648e-06 0. 
8.163e-05 -2.45437e-06 0. 
8.172e-05 -2.456e-06 0. 
8.181e-05 -2.45678e-06 0. 
8.19e-05 -2.45864e-06 0. 
8.199e-05 -2.45307e-06 0. 
8.208e-05 -2.45574e-06 0. 
8.217e-05 -2.45168e-06 0. 
8.226e-05 -2.45501e-06 0. 
8.235e-05 -2.45859e-06 0. 
8.244e-05 -2.45669e-06 0. 
8.253e-05 -2.45861e-06 0. 
8.262e-05 -2.46083e-06 0. 
8.271e-05 -2.45728e-06 0. 
8.28e-05 -2.45331e-06 0. 
8.289e-05 -2.4568e-06 0. 
8.298e-05 -2.46221e-06 0. 
8.307e-05 -2.4614e-06 0. 
8.316e-05 -2.46031e-06 0. 
8.325e-05 -2.45761e-06 0. 
8.334e-05 -2.45131e-06 0. 
8.343e-05 -2.45512e-06 0. 
8.352e-05 -2.45452e-06 0. 
8.361e-05 -2.45197e-06 0. 
8.37e-05 -2.45282e-06 0. 
8.379e-05 -2.45465e-06 0. 
8.388e-05 -2.4582e-06 0. 
8.397e-05 -2.45818e-06 0. 
8.406e-05 -2.45111e-06 0. 
8.415e-05 -2.45146e-06 0. 
8.424e-05 -2.45379e-06 0. 
8.433e-05 -2.45602e-06 0. 
8.442e-05 -2.45267e-06 0. 
8.451e-05 -2.45164e-06 0. 
8.46e-05 -2.45458e-06 0. 
8.469e-05 -2.44858e-06 0. 
8.478e-05 -2.45187e-06 0. 
8.487e-05 -2.45255e-06 0. 
8.496e-05 -2.45219e-06 0. 
8.505e-05 -2.45306e-06 0. 
8.514e-05 -2.457e-06 0. 
8.523e-05 -2.45674e-06 0. 
8.532e-05 -2.45184e-06 0. 
8.541e-05 -2.45267e-06 0. 
8.55e-05 -2.44552e-06 0. 
8.559e-05 -2.45481e-06 0. 
8.568e-05 -2.45807e-06 0. 
8.577e-05 -2.45538e-06 0. 
8.586e-05 -2.45038e-06 0. 
8.595e-05 -2.44708e-06 0. 
8.604e-05 -2.45113e-06 0. 
8.613e-05 -2.44991e-06 0. 
8.622e-05 -2.44812e-06 0. 
8.631e-05 -2.45073e-06 0. 
8.64e-05 -2.45002e-06 0. 
8.649e-05 -2.44487e-06 0. 
8.658e-05 -2.44696e-06 0. 
8.667e-05 -2.44545e-06 0. 
8.676e-05 -2.44709e-06 0. 
8.685e-05 -2.44366e-06 0. 
8.694e-05 -2.44383e-06 0. 
8.703e-05 -2.44232e-06 0. 
8.712e-05 -2.44589e-06 0. 
8.721e-05 -2.44424e-06 0. 
8.73e-05 -2.44025e-06 0. 
8.739e-05 -2.43641e-06 0. 
8.748e-05 -2.44135e-06 0. 
8.757e-05 -2.43704e-06 0. 
8.766e-05 -2.43262e-06 0. 
8.775e-05 -2.43746e-06 0. 
8.784e-05 -2.44247e-06 0. 
8.793e-05 -2.43862e-06 0. 
8.802e-05 -2.43361e-06 0. 
8.80785e-05 -2.43e-06 0. 
6.01479e-05 -2.34e-06 0. 
6.021e-05 -2.42364e-06 0. 
6.039e-05 -2.42794e-06 0. 
6.048e-05 -2.41794e-06 0. 
6.057e-05 -2.4088e-06 0. 
6.066e-05 -2.38593e-06 0. 
6.075e-05 -2.38611e-06 0. 
6.084e-05 -2.38948e-06 0. 
6.093e-05 -2.39761e-06 0. 
6.102e-05 -2.40325e-06 0. 
6.111e-05 -2.40007e-06 0. 
6.12e-05 -2.40426e-06 0. 
6.129e-05 -2.40673e-06 0. 
6.138e-05 -2.41985e-06 0. 
6.147e-05 -2.42162e-06 0. 
6.156e-05 -2.41688e-06 0. 
6.165e-05 -2.4206e-06 0. 
6.201e-05 -2.42934e-06 0. 
8.811e-05 -2.42806e-06 0. 
8.82e-05 -2.42118e-06 0. 
8.829e-05 -2.42501e-06 0. 
8.838e-05 -2.42305e-06 0. 
8.847e-05 -2.42311e-06 0. 
8.856e-05 -2.41928e-06 0. 
8.865e-05 -2.41516e-06 0. 
8.874e-05 -2.40699e-06 0. 
8.883e-05 -2.40911e-06 0. 
8.892e-05 -2.40848e-06 0. 
8.901e-05 -2.40506e-06 0. 
8.91e-05 -2.40001e-06 0. 
8.919e-05 -2.39053e-06 0. 
8.928e-05 -2.38664e-06 0. 
8.937e-05 -2.38311e-06 0. 
8.946e-05 -2.37052e-06 0. 
8.955e-05 -2.39057e-06 0. 
8.964e-05 -2.40416e-06 0. 
8.973e-05 -2.42396e-06 0. 
8.982e-05 -2.35354e-06 0. 
8.98335e-05 -2.34e-06 0. 
6.01253e-05 -2.25e-06 0. 
8.98769e-05 -2.25e-06 0. 
6.01231e-05 -2.16e-06 0. 
8.98822e-05 -2.16e-06 0. 
6.01236e-05 -2.07e-06 0. 
8.98821e-05 -2.07e-06 0. 
6.01252e-05 -1.98e-06 0. 
8.98847e-05 -1.98e-06 0. 
6.01304e-05 -1.89e-06 0. 
8.98767e-05 -1.89e-06 0. 
6.01288e-05 -1.8e-06 0. 
8.98771e-05 -1.8e-06 0. 
6.01249e-05 -1.71e-06 0. 
8.98795e-05 -1.71e-06 0. 
6.01261e-05 -1.62e-06 0. 
8.98722e-05 -1.62e-06 0. 
6.01165e-05 -1.53e-06 0. 
6.012e-05 -1.56261e-06 0. 
8.98829e-05 -1.53e-06 0. 
6.012e-05 -1.51583e-06 0. 
6.01386e-05 -1.44e-06 0. 
8.98794e-05 -1.44e-06 0. 
6.01183e-05 -1.35e-06 0. 
6.012e-05 -1.35772e-06 0. 
8.98846e-05 -1.35e-06 0. 
6.01061e-05 -1.26e-06 0. 
8.98879e-05 -1.26e-06 0. 
6.012e-05 -1.20976e-06 0. 
6.0131e-05 -1.17e-06 0. 
8.991e-05 -1.21434e-06 0. 
8.99314e-05 -1.17e-06 0. 
6.01121e-05 -1.08e-06 0. 
6.012e-05 -1.1175e-06 0. 
[...]
POINT_DATA 1737
SCALARS Coverage0 float 1
LOOKUP_TABLE default
0.37274
0.259599
0.264149
0.366892
0.366892
0.342815
0.328083
0.342894
0.342894
0.335893
0.359612
0.335984
0.338364
0.348234
0.342342
0.343914
0.349929
0.341404
0.329919
0.359364
0.362671
0.334257
0.359863
0.344814
0.343387
0.346253
0.350237
0.344115
0.355061
0.353604
0.359898
0.342097
0.356384
0.358774
0.355849
0.379222
0.380002
0.373754
0.325408
0.340342
0.369862
0.352326
0.325619
0.353456
0.368929
0.370793
0.363382
0.357555
0.36211
0.342911
0.356038
0.365532
0.360269
0.330917
0.364463
0.387048
0.348109
0.351843
0.353141
0.362178
0.372649
0.381911
0.364985
0.347992
0.354104
0.364819
0.351803
0.342823
0.341297
0.350958
0.364415
0.341847
0.344975
0.343461
0.340034
0.37598
0.362325
0.357714
0.340368
0.34382
0.348637
0.384829
0.372932
0.361957
0.340736
0.369927
0.368503
0.378275
0.379482
0.368771
0.357927
0.368466
0.354446
0.361457
0.358538
0.386688
0.382729
0.372637
0.402964
0.359349
0.349016
0.379148
0.394318
0.369693
0.365579
0.384376
0.36183
0.347218
0.33983
0.351644
0.355899
0.374065
0.39088
0.356375
0.346299
0.367195
0.365176
0.368595
0.37735
0.359763
0.367569
0.367385
0.354375
0.356534
0.354521
0.366019
0.35295
0.356636
0.349358
0.347867
0.338479
0.360622
0.369464
0.345827
0.348994
0.368069
0.379445
0.339392
0.36419
0.370312
0.350477
0.348353
0.355375
0.363406
0.36952
0.370231
0.388826
0.359789
0.372838
0.357321
0.338546
0.360368
0.372072
0.364513
0.364034
0.340998
0.380412
0.357489
0.365858
0.356161
0.347459
0.350523
0.358259
0.355453
0.342891
0.352351
0.370216
0.335709
0.362853
0.384886
0.363452
0.347978
0.373013
0.370489
0.403025
0.354597
0.352077
0.39159
0.369051
0.347205
0.363083
0.366969
0.361285
0.347942
0.357602
0.368998
0.377668
0.381947
0.352528
0.353804
0.347621
0.358867
0.359558
0.350384
0.363
0.358237
0.374862
0.386479
0.392112
0.358943
0.356097
0.351079
0.351776
0.376613
0.368708
0.397261
0.385956
0.342916
0.351373
0.347183
0.373079
0.322589
0.347585
0.375355
0.34853
0.373358
0.393367
0.353168
0.342609
0.351306
0.380823
0.383753
0.34447
0.351328
0.362902
0.381458
0.353003
0.354077
0.369549
0.378444
0.381832
0.382095
0.359158
0.339957
0.358931
0.374887
0.367077
0.366441
0.374077
0.366555
0.348709
0.374024
0.346187
0.336107
0.365374
0.363688
0.364704
0.358548
0.383892
0.36006
0.370912
0.366552
0.364862
0.395861
0.361186
0.35579
0.359271
0.364431
0.355031
0.34639
0.354684
0.364109
0.359091
0.33869
0.329556
0.355334
0.358612
0.362795
0.377241
0.360126
0.330732
0.349594
0.3402
0.379015
0.383135
0.365168
0.362892
0.351753
0.348175
0.344549
0.330037
0.346816
0.343998
0.34122
0.352052
0.344815
0.334304
0.319508
0.334712
0.340919
0.350345
0.345477
0.324731
0.335016
0.32405
0.339887
0.341329
0.339512
0.348093
0.633869
0.37274
0.264149
0.264403
0.2704
0.294964
0.303279
0.296062
0.278187
0.301751
0.326939
0.31607
0.322655
0.325892
0.310833
0.303043
0.347919
0.342894
0.348093
0.325558
0.325336
0.340573
0.328875
0.3301
0.323502
0.314201
0.334408
0.32065
0.286008
0.286193
0.308381
0.307648
0.306079
0.263626
0.24988
0.241663
0.298867
0.473889
0.473889
0.933773
0.837408
0.981491
0.706619
0.707736
0.968895
0.99976
0.999733
0.9983
0.999965
0.971556
0.960244
1
1
0.950527
0.991214
1
1
0.867824
1
0.933112
0.895119
0.800113
0.800113
0.719272
0
0.744404
1
1
0.710807
0.710807
0.856878
0.856878
0.862156
0.932817
0.871932
0.761047
0.499069
0.615641
0
0.876052
0.811311
0.944575
0.83778
0.959342
0.959342
0.916896
1
0.998895
0.855979
0.855979
0.777895
0.798543
0.855979
0.736841
0.736841
1
0.769039
0.825547
0.825547
0.737763
0.717456
0.825547
1
0.701292
0.641074
0.36638
0.366976
0.373714
0.374615
0.356595
0.365496
0.358345
0.380048
0.367556
0.354995
0.347598
0.372014
0.373121
0.376838
0.351729
0.372886
0.368317
0.375369
0.364568
0.377905
0.36306
0.356038
0.363597
0.377787
0.360814
0.363112
0.377989
0.362339
0.367548
0.379154
0.359885
0.362789
0.369681
0.385518
0.368899
0.381234
0.363659
0.353921
0.365039
0.378115
0.364804
0.381809
0.363054
0.367839
0.365932
0.370447
0.371
0.349608
0.377179
0.355774
0.374934
0.375016
0.357634
0.388492
0.356974
0.355983
0.369116
0.362237
0.377004
0.364425
0.368605
0.366872
0.359214
0.364394
0.387682
0.369021
0.362157
0.354756
0.367641
0.37517
0.381481
0.380179
0.354376
0.355583
0.377607
0.366194
0.380627
0.372213
0.36904
0.372673
0.348525
0.356973
0.392549
0.38002
0.351577
0.358447
0.35707
0.362538
0.376887
0.363341
0.364776
0.373904
0.367309
0.357123
0.375269
0.353324
0.359369
0.370082
0.359322
0.340568
0.360638
0.3775
0.373475
0.377634
0.363356
0.382713
0.374571
0.361245
0.372546
0.389421
0.357068
0.353337
0.358988
0.369865
0.360372
0.368668
0.356514
0.357672
0.364877
0.372873
0.35191
0.349777
0.350053
0.370499
0.384507
0.369345
0.370062
0.364985
0.368189
0.361055
0.384867
0.356848
0.354026
0.343456
0.357742
0.377769
0.36429
0.362204
0.366202
0.362387
0.367244
0.364872
0.374869
0.363903
0.376331
0.353198
0.373321
0.348104
0.374928
0.38073
0.361296
0.351722
0.374093
0.367475
0.37293
0.363713
0.375468
0.37821
0.34997
0.359286
0.356121
0.356037
0.366008
0.363468
0.381108
0.384809
0.376558
0.376837
0.375638
0.361576
0.372963
0.372755
0.375867
0.370886
0.364868
0.375482
0.358731
0.35594
0.381931
0.35088
0.375834
0.370922
0.376047
0.378207
0.355108
0.367181
0.361508
0.368289
0.378058
0.36456
0.367911
0.366973
0.374014
0.376614
0.361185
0.352013
0.351679
0.391191
0.381758
0.344564
0.357451
0.3571
0.375218
0.36556
0.384317
0.353518
0.387747
0.370611
0.353589
0.347865
0.366519
0.38031
0.363883
0.366238
0.36388
0.377627
0.357048
0.356348
0.369403
0.35456
0.355523
0.377383
0.361587
0.377221
0.36001
0.355525
0.378343
0.366424
0.362387
0.369796
0.374975
0.358114
0.374718
0.364465
0.36574
0.360794
0.371293
0.371069
0.353687
0.365884
0.369252
0.357192
0.368811
0.364185
0.382939
0.3576
0.360063
0.353711
0.361541
0.359582
0.382296
0.379786
0.354889
0.357833
0.36739
0.37605
0.366656
0.380924
0.372842
0.364891
0.357868
0.363199
0.366157
0.364979
0.347169
0.372257
0.379688
0.363248
0.350644
0.367358
0.370577
0.370951
0.361741
0.375174
0.382716
0.36971
0.365844
0.350277
0.342472
0.363789
0.396057
0.36427
0.358007
0.372125
0.361783
0.377049
0.357828
0.357472
0.359365
0.382489
0.369081
0.364519
0.364251
0.367068
0.363649
0.364257
0.360132
0.377565
0.352244
0.355317
0.385603
0.364377
0.359701
0.366837
0.366396
0.363877
0.375363
0.357289
0.3676
0.356099
0.351097
0.375455
0.37704
0.350574
0.361364
0.369213
0.373909
0.359765
0.360568
0.369566
0.367986
0.374733
0.383323
0.361404
0.35736
0.359666
0.372262
0.368402
0.355358
0.370844
0.368563
0.372475
0.388249
0.362092
0.373204
0.382459
0.353328
0.374629
0.368199
0.374514
0.364778
0.367855
0.365241
0.356386
0.367572
0.372072
0.357047
0.369998
0.361398
0.363979
0.36601
0.354555
0.374705
0.364561
0.350727
0.371081
0.359549
0.344731
0.368985
0.360608
0.372396
0.391489
0.358538
0.356608
0.359262
0.336209
0.375374
0.383768
0.376833
0.364164
0.379839
0.365579
0.375604
0.352604
0.347992
0.376288
0.383575
0.372569
0.359855
0.370002
0.361016
0.361609
0.360652
0.377618
0.374799
0.356616
0.357418
0.381288
0.370134
0.369948
0.363014
0.369817
0.355049
0.341871
0.381203
0.381156
0.362783
0.368321
0.343938
0.374798
0.380427
0.361143
0.357941
0.392621
0.379266
0.35277
0.359639
0.359978
0.371795
0.375027
0.372899
0.382799
0.359571
0.365071
0.369239
0.363008
0.354899
0.362224
0.373683
0.363275
0.366607
0.367896
0.351852
0.36515
0.351361
0.371595
0.368836
0.362011
0.386257
0.37667
0.374922
0.375926
0.370097
0.359165
0.375999
0.368105
0.362651
0.343941
0.361638
0.385363
0.36119
0.366651
0.37048
0.3494
0.362026
0.369007
0.352637
0.373264
0.38377
0.389167
0.366257
0.351467
0.347483
0.359742
0.358602
0.374198
0.374374
0.368304
0.383808
0.354107
0.365851
0.358333
0.379098
0.362972
0.376284
0.360346
0.368512
0.383037
0.357114
0.348191
0.355945
0.373162
0.369794
0.374087
0.358455
0.343268
0.360922
0.379807
0.372601
0.369725
0.350902
0.354135
0.373079
0.362449
0.369576
0.361674
0.352885
0.349445
0.353616
0.382205
0.374707
0.383513
0.376237
0.372492
0.382923
0.376702
0.348692
0.352482
0.37228
0.340843
0.369928
0.36583
0.35883
0.388683
0.376401
0.331384
0.373455
0.352836
0.34846
0.368583
0.365389
0.357695
0.370528
0.376158
0.37796
0.36729
0.375819
0.37869
0.347271
0.349909
0.349773
0.37831
0.363746
0.375423
0.346825
0.3698
0.383562
0.373078
0.371346
0.358893
0.351956
0.370123
0.368145
0.360865
0.352757
0.357103
0.374201
0.352536
0.365194
0.362556
0.362845
0.364937
0.359611
0.376915
0.364738
0.377976
0.387063
0.355024
0.362552
0.36827
0.378414
0.368573
0.333536
0.360585
0.362588
0.361257
0.382659
0.355222
0.382444
0.362202
0.354511
0.340088
0.37183
0.38595
0.36677
0.3859
0.369321
0.361417
0.36746
0.36693
0.362946
0.363664
0.371648
0.354245
0.371258
0.363922
0.374236
0.375177
0.351695
0.359828
0.376837
0.377667
0.354075
0.344845
0.375085
0.369584
0.372092
0.375044
0.356418
0.360778
0.355801
0.377575
0.369506
0.350915
0.366179
0.348804
0.370143
0.373485
0.368403
0.395685
0.364953
0.354129
0.372632
0.37784
0.375581
0.355431
0.366364
0.352507
0.357706
0.380906
0.358382
0.360662
0.370715
0.365326
0.350997
0.372125
0.380474
0.371654
0.374055
0.376201
0.368456
0.359725
0.367207
0.363002
0.389035
0.371058
0.375782
0.372695
0.353032
0.346839
0.371804
0.364432
0.349044
0.350864
0.355422
0.359045
0.36678
0.373365
0.363177
0.355068
0.363866
0.355851
0.38037
0.377503
0.367266
0.356568
0.367135
0.343117
0.367059
0.373543
0.374095
0.359365
0.350574
0.345328
0.370297
0.370449
0.371791
0.373293
0.362891
0.350389
0.360572
0.364276
0.368362
0.397809
0.360274
0.353101
0.408088
0.382174
0.379671
0.365924
0.369412
0.366655
0.369038
0.359008
0.350571
0.369627
0.361054
0.361729
0.362283
0.368124
0.364878
0.373712
0.394569
0.373464
0.384657
0.350723
0.364895
0.363538
0.355941
0.369569
0.366588
0.362978
0.350367
0.391597
0.381532
0.367051
0.350752
0.340848
0.359065
0.367805
0.356303
0.373047
0.375919
0.372529
0.354975
0.364073
0.38285
0.370879
0.365697
0.367648
0.336176
0.347522
0.364033
0.376278
0.381886
0.364734
0.358016
0.357979
0.383352
0.392076
0.377423
0.359425
0.360914
0.365708
0.361132
0.361047
0.355031
0.378675
0.375867
0.377658
0.367365
0.341096
0.356217
0.365621
0.379723
0.353647
0.364408
0.369069
0.368425
0.364564
0.374003
0.38488
0.363814
0.343275
0.361649
0.380237
0.396786
0.371988
0.347608
0.352793
0.347691
0.377643
0.378352
0.363335
0.37835
0.362036
0.391183
0.35968
0.340763
0.359836
0.356664
0.36786
0.379202
0.372671
0.373639
0.391862
0.370067
0.371089
0.370329
0.350421
0.365007
0.379573
0.348904
0.362839
0.367742
0.354721
0.34051
0.375148
0.389875
0.36687
0.377056
0.375235
0.378741
0.364049
0.38304
0.361914
0.359073
0.365237
0.360523
0.340882
0.372661
0.378639
0.388389
0.372274
0.370933
0.36132
0.359588
0.357677
0.353299
0.352827
0.33411
0.371518
0.374881
0.357077
0.363356
0.372306
0.378253
0.375822
0.373254
0.367468
0.370454
0.367603
0.362314
0.360914
0.373882
0.381289
0.361425
0.347522
0.347818
0.373967
0.371974
0.373059
0.363917
0.361861
0.377713
0.375296
0.369427
0.348302
0.374234
0.368336
0.366199
0.371691
0.358556
0.365673
0.374706
0.356855
0.370653
0.356306
0.376392
0.354587
0.374411
0.356364
0.351574
0.35896
0.37503
0.363227
0.373605
0.366376
0.357986
0.370063
0.387507
0.366672
0.361477
0.364683
0.34866
0.360171
0.377996
0.367844
0.360918
0.372896
0.367813
0.370029
0.361546
0.356654
0.362705
0.388129
0.374052
0.36418
0.367422
0.379227
0.360445
0.382028
0.358063
0.376456
0.366902
0.366951
0.348049
0.362523
0.379252
0.363296
0.366944
0.35342
0.352642
0.388343
0.351395
0.350931
0.367848
0.36741
0.348625
0.369697
0.381658
0.372575
0.367221
0.36474
0.354737
0.359913
0.37081
0.363287
0.365847
0.382065
0.364449
0.357215
0.358742
0.351643
0.362877
0.378805
0.357508
0.382719
0.37205
0.366373
0.353899
0.35324
0.354379
0.368273
0.365339
0.375845
0.362644
0.3947
0.365762
0.354952
0.357502
0.365397
0.374573
0.368722
0.352391
0.358501
0.366791
0.361818
0.384393
0.351585
0.372195
0.359574
0.381716
0.375545
0.384347
0.374032
0.367174
0.356001
0.358449
0.383606
0.369975
0.374288
0.364258
0.3802
0.374423
0.366688
0.370528
0.372777
0.365996
0.347445
0.374691
0.36958
0.351316
0.384232
0.387868
0.384053
0.369798
0.354509
0.355865
0.359445
0.363818
0.361526
0.375418
0.358931
0.35613
0.396246
0.390933
0.365219
0.34806
0.376351
0.375903
0.365948
0.365548
0.347151
0.371396
0.377973
0.382061
0.364645
0.353506
0.364061
0.36091
0.365767
0.371119
0.362244
0.387152
0.369591
0.355222
0.370979
0.357286
0.349226
0.366624
0.361277
0.376114
0.382655
0.374803
0.367731
0.38872
0.37053
0.375058
0.3664
0.375791
0.355564
0.356374
0.367934
0.369221
0.367183
0.371911
0.374914
0.368728
0.373781
0.380146
0.358115
0.341742
0.359875
0.373787
0.384415
0.373254
0.37213
0.36588
0.357608
0.378223
0.373832
0.379227
0.374762
0.370835
0.378357
0.360504
0.346927
0.354261
0.355959
0.346729
0.389108
0.377232
0.376707
0.36644
0.347896
0.369651
0.356395
0.379558
0.372052
0.362979
0.351929
0.368406
0.370746
0.36618
0.361139
0.363644
0.38809
0.355987
0.357421
0.365234
0.366995
0.370945
0.382021
0.370024
0.377334
0.365222
0.35451
0.369765
0.37266
0.374707
0.369651
0.35304
0.363447
0.370373
0.36299
0.373195
0.36273
0.365865
0.365583
0.351307
0.351484
0.37702
0.371303
0.370696
0.378923
0.372151
0.372523
0.366748
0.351313
0.366187
0.359671
0.356731
0.370808
0.380094
0.355307
0.355128
0.356384
0.375655
0.372689
0.357397
0.39095
0.375879
0.375245
0.367599
0.371443
0.355022
0.358156
0.380287
0.371087
0.348344
0.330931
0.372398
0.382021
0.372248
0.355188
0.389051
0.365625
0.358279
0.363594
0.37307
0.379627
0.377326
0.359715
0.368365
0.360007
0.376648
0.374781
0.373915
0.361314
0.366705
0.359345
0.368345
0.37258
0.365304
0.355779
0.371359
0.356153
0.377684
0.369857
0.364501
0.361205
0.389493
0.377918
0.368802
0.362701
0.35302
0.375361
0.357316
0.357102
0.371449
0.391187
0.366668
0.355878
0.353991
0.357968
0.379728
0.374143
0.375013
0.353225
0.358577
0.359702
0.373573
0.387304
0.351836
0.358946
0.368889
0.37214
0.358354
0.356019
0.353468
0.366733
0.372064
0.372374
0.364146
0.35228
0.376598
0.373446
0.353326
0.361279
0.369756
0.390223
0.37839
0.353818
0.358123
0.369711
0.349437
0.362901
0.379488
0.364226
0.371581
0.366655
0.37122
0.371307
0.37277
0.353341
0.359869
0.36704
0.359481
0.366835
0.373275
0.362049
0.349249
0.349008
0.366069
0.378987
0.382739
0.354112
0.356905
0.361435
0.359399
0.375283
0.363727
0.373872
0.377705
0.341537
0.36689
0.371772
0.352733
0.373826
0.36237
0.387311
0.349436
0.359048
0.351786
0.354117
0.367915
0.36813
0.375255
0.381129
0.354778
0.358905
0.381358
0.36754
0.362398
0.366006
0.362743
0.364054
0.35889
0.379591
0.369263
0.348136
0.363767
0.371122
0.374888
0.354048
0.356939
0.366492
0.358774
0.364314
0.385942
0.36821
0.336193
0.349927
0.372434
0.379358
0.344846
0.353179
0.388644
0.367775
0.370809
0.377339
0.379405
0.355754
0.353915
0.369478
0.356429
0.342785
0.370901
0.377338
0.36542
0.350595
0.349435
0.370921
0.37717
0.36921
0.356259
0.346971
0.374187
0.371702
0.372129
0.355034
0.369252
0.372483
0.366349
0.373148
0.371451
0.354049
0.361607
0.37426
0.374894
0.357649
0.356294
0.350893
0.376486
0.352404
0.357735
0.365634
0.370804
0.360716
0.357138
0.356891
0.382782
0.389794
0.351121
0.359308
0.351739
0.376891
0.36849
0.379361
0.37863
0.356425
0.347509
0.366065
0.359728
0.350948
0.354737
0.377629
0.366973
0.356424
0.357461
0.372478
0.363899
0.394205
0.372138
0.369745
0.343523
0.361321
0.371215
0.366151
0.356389
0.367135
0.388489
0.362913
0.37848
0.364711
0.349822
0.36699
0.369281
0.37467
0.360383
0.368465
0.36638
SCALARS Coverage1 float 1
LOOKUP_TABLE default
0.185716
0.195753
0.176827
0.187881
0.187881
0.169493
0.174765
0.185706
0.185706
0.182413
0.190022
0.187573
0.198862
0.19634
0.175283
0.185651
0.209161
0.203554
0.184483
0.19263
0.18445
0.195786
0.204886
0.206545
0.170347
0.179485
0.177605
0.187119
0.200932
0.212579
0.194445
0.191691
0.189052
0.194222
0.183968
0.188729
0.214708
0.210306
0.18646
0.180152
0.18949
0.173752
0.181996
0.187435
0.200056
0.204698
0.197015
0.192689
0.18638
0.200058
0.211984
0.19311
0.215375
0.226452
0.198571
0.220377
0.205246
0.192163
0.1955
0.197587
0.202201
0.195974
0.171448
0.181107
0.196573
0.224948
0.216466
0.206737
0.208112
0.209648
0.192713
0.192197
0.183766
0.183463
0.20629
0.190378
0.197522
0.210243
0.202124
0.202886
0.204504
0.197084
0.188761
0.19488
0.189669
0.212163
0.190148
0.1782
0.188492
0.21856
0.187725
0.183966
0.187216
0.182243
0.198421
0.187372
0.185395
0.185717
0.197662
0.185417
0.200936
0.188566
0.204458
0.198404
0.194508
0.18902
0.217346
0.205669
0.192848
0.191695
0.187795
0.207119
0.196966
0.18851
0.185401
0.19182
0.191479
0.205138
0.200245
0.185946
0.175836
0.182185
0.197885
0.187794
0.178744
0.204779
0.20596
0.225264
0.216614
0.201751
0.19928
0.192375
0.20223
0.205019
0.200114
0.191479
0.198263
0.176049
0.181508
0.194136
0.230509
0.222997
0.21063
0.220434
0.197709
0.203784
0.197908
0.18597
0.183972
0.187556
0.19264
0.191514
0.190001
0.175665
0.192683
0.207681
0.195235
0.18368
0.194568
0.197237
0.20488
0.203307
0.226298
0.192563
0.179691
0.209402
0.205085
0.18476
0.200255
0.197842
0.185019
0.174286
0.203433
0.207906
0.183841
0.197497
0.191057
0.183428
0.192455
0.194495
0.189458
0.171286
0.217472
0.204969
0.192793
0.206573
0.212185
0.200832
0.192069
0.202284
0.202167
0.198324
0.192852
0.215513
0.203841
0.215136
0.197035
0.199368
0.209877
0.199154
0.199196
0.198559
0.211897
0.204883
0.201057
0.186199
0.206742
0.203612
0.188443
0.210904
0.206839
0.176808
0.196871
0.215587
0.196847
0.168622
0.173521
0.19027
0.189419
0.180785
0.183165
0.185204
0.175177
0.182122
0.2028
0.193904
0.208604
0.198547
0.185837
0.176528
0.172873
0.20387
0.215734
0.191229
0.187088
0.193756
0.200441
0.190451
0.190461
0.182945
0.199546
0.210147
0.209957
0.218082
0.205327
0.183761
0.186013
0.183955
0.172125
0.193519
0.186267
0.202393
0.198455
0.206827
0.186312
0.189502
0.195488
0.19288
0.192829
0.199952
0.18671
0.21377
0.204705
0.194555
0.205794
0.199038
0.193414
0.1841
0.184217
0.198903
0.20114
0.192639
0.215348
0.207972
0.198575
0.18544
0.176414
0.198821
0.187758
0.192502
0.182068
0.202167
0.192911
0.177832
0.177278
0.182371
0.189464
0.176007
0.181638
0.186052
0.192853
0.192821
0.196063
0.209094
0.180251
0.19296
0.169427
0.169439
0.175753
0.270986
0.185716
0.176827
0.168969
0.170103
0.158387
0.171847
0.178565
0.193083
0.211057
0.197746
0.175054
0.207089
0.200059
0.19158
0.167824
0.178609
0.185706
0.175753
0.189231
0.191709
0.196951
0.214447
0.192442
0.190927
0.176405
0.18205
0.186412
0.19371
0.189932
0.201302
0.190497
0.183771
0.1809
0.16171
0.181346
0.179404
0.226455
0.226455
2.39233
0.652408
0
20.1493
0.0558406
0.0590241
0.144219
0
0
0
33.5503
0
1
1
0.121329
32.8956
0
0
21.2655
0
0
0.241543
0
0
0
0
0.437307
1
1
0.327272
0.327272
0
0
0.0711936
0
0
0
1245.77
0.285274
0
1.43738
0
15.3416
2.15499
0
0
6.87083
1
0.030532
0.0642152
0.0642152
0.0266272
1.82987
0.0642152
2.08901
2.08901
1
2.62099
5.8722
5.8722
0.0637168
0.317735
5.8722
0
0.32481
0.257881
0.197832
0.202404
0.192329
0.207097
0.183222
0.191887
0.201314
0.181981
0.17651
0.201131
0.210799
0.193812
0.20049
0.210214
0.221529
0.191477
0.18634
0.193425
0.184232
0.195987
0.194102
0.202781
0.193887
0.175325
0.185767
0.21735
0.203971
0.191729
0.199154
0.200575
0.195096
0.206577
0.198613
0.18177
0.187781
0.184498
0.215763
0.211383
0.202391
0.185545
0.191958
0.190296
0.204948
0.190494
0.178035
0.191744
0.207927
0.209782
0.181938
0.198638
0.198847
0.191555
0.199349
0.202203
0.19153
0.209905
0.194848
0.196436
0.180507
0.198567
0.192297
0.186659
0.196292
0.20748
0.20596
0.195179
0.19359
0.199596
0.194373
0.193426
0.190031
0.198075
0.200344
0.1881
0.179955
0.200889
0.20045
0.204521
0.190644
0.193986
0.197159
0.207002
0.191404
0.192661
0.199368
0.212229
0.192435
0.18769
0.18003
0.197673
0.189634
0.195147
0.190505
0.207274
0.202412
0.199615
0.195598
0.180274
0.202186
0.205444
0.198846
0.192924
0.199828
0.188043
0.193393
0.190503
0.197832
0.187898
0.180815
0.19006
0.198467
0.186869
0.193968
0.199248
0.198599
0.203205
0.201454
0.196516
0.197021
0.198529
0.186508
0.193682
0.203869
0.179588
0.177619
0.192364
0.195384
0.195181