# vtk DataFile Version 2.0
2D Surface
ASCII
DATASET UNSTRUCTURED_GRID
POINTS 2451 float
7.02583e-05 -2.142e-05 0. 
7.029e-05 -2.14218e-05 0. 
7.038e-05 -2.14226e-05 0. 
7.047e-05 -2.14253e-05 0. 
7.056e-05 -2.14294e-05 0. 
7.065e-05 -2.14311e-05 0. 
7.074e-05 -2.14302e-05 0. 
7.083e-05 -2.14237e-05 0. 
7.092e-05 -2.14342e-05 0. 
7.101e-05 -2.1437e-05 0. 
7.11e-05 -2.1436e-05 0. 
7.119e-05 -2.14357e-05 0. 
7.128e-05 -2.1433e-05 0. 
7.137e-05 -2.14249e-05 0. 
7.146e-05 -2.14284e-05 0. 
7.155e-05 -2.14282e-05 0. 
7.164e-05 -2.14307e-05 0. 
7.173e-05 -2.14376e-05 0. 
7.182e-05 -2.1434e-05 0. 
7.191e-05 -2.14397e-05 0. 
7.2e-05 -2.14395e-05 0. 
7.209e-05 -2.14441e-05 0. 
7.218e-05 -2.14496e-05 0. 
7.227e-05 -2.14475e-05 0. 
7.236e-05 -2.14552e-05 0. 
7.245e-05 -2.14669e-05 0. 
7.254e-05 -2.14715e-05 0. 
7.263e-05 -2.14769e-05 0. 
7.272e-05 -2.14819e-05 0. 
7.281e-05 -2.14818e-05 0. 
7.29e-05 -2.14807e-05 0. 
7.299e-05 -2.14825e-05 0. 
7.308e-05 -2.14865e-05 0. 
7.317e-05 -2.14827e-05 0. 
7.326e-05 -2.14755e-05 0. 
7.335e-05 -2.14825e-05 0. 
7.344e-05 -2.14798e-05 0. 
7.353e-05 -2.14734e-05 0. 
7.362e-05 -2.14782e-05 0. 
7.371e-05 -2.14801e-05 0. 
7.38e-05 -2.14796e-05 0. 
7.389e-05 -2.14767e-05 0. 
7.398e-05 -2.14803e-05 0. 
7.407e-05 -2.14748e-05 0. 
7.416e-05 -2.14823e-05 0. 
7.425e-05 -2.14894e-05 0. 
7.434e-05 -2.14881e-05 0. 
7.443e-05 -2.14928e-05 0. 
7.452e-05 -2.14994e-05 0. 
7.461e-05 -2.14978e-05 0. 
7.47e-05 -2.14981e-05 0. 
7.479e-05 -2.14924e-05 0. 
7.488e-05 -2.14862e-05 0. 
7.497e-05 -2.1485e-05 0. 
7.506e-05 -2.14855e-05 0. 
7.515e-05 -2.14798e-05 0. 
7.524e-05 -2.14859e-05 0. 
7.533e-05 -2.1485e-05 0. 
7.542e-05 -2.14799e-05 0. 
7.551e-05 -2.14823e-05 0. 
7.56e-05 -2.1482e-05 0. 
7.569e-05 -2.14875e-05 0. 
7.578e-05 -2.14905e-05 0. 
7.587e-05 -2.14861e-05 0. 
7.596e-05 -2.14816e-05 0. 
7.605e-05 -2.14809e-05 0. 
7.614e-05 -2.14845e-05 0. 
7.623e-05 -2.14885e-05 0. 
7.632e-05 -2.14838e-05 0. 
7.641e-05 -2.14839e-05 0. 
7.65e-05 -2.14825e-05 0. 
7.659e-05 -2.14787e-05 0. 
7.668e-05 -2.14917e-05 0. 
7.677e-05 -2.1493e-05 0. 
7.686e-05 -2.14978e-05 0. 
7.695e-05 -2.14937e-05 0. 
7.704e-05 -2.14831e-05 0. 
7.713e-05 -2.14874e-05 0. 
7.722e-05 -2.14772e-05 0. 
7.731e-05 -2.14725e-05 0. 
7.74e-05 -2.14769e-05 0. 
7.749e-05 -2.14786e-05 0. 
7.758e-05 -2.14775e-05 0. 
7.767e-05 -2.14765e-05 0. 
7.776e-05 -2.1465e-05 0. 
7.785e-05 -2.14652e-05 0. 
7.794e-05 -2.14612e-05 0. 
7.803e-05 -2.14634e-05 0. 
7.812e-05 -2.1459e-05 0. 
7.821e-05 -2.14611e-05 0. 
7.83e-05 -2.14584e-05 0. 
7.839e-05 -2.14584e-05 0. 
7.848e-05 -2.14498e-05 0. 
7.857e-05 -2.14488e-05 0. 
7.866e-05 -2.14439e-05 0. 
7.875e-05 -2.14447e-05 0. 
7.884e-05 -2.14449e-05 0. 
7.893e-05 -2.14388e-05 0. 
7.902e-05 -2.14339e-05 0. 
7.911e-05 -2.14281e-05 0. 
7.92e-05 -2.14227e-05 0. 
7.929e-05 -2.14213e-05 0. 
7.938e-05 -2.14247e-05 0. 
7.947e-05 -2.14237e-05 0. 
7.956e-05 -2.14248e-05 0. 
7.96188e-05 -2.142e-05 0. 
6.76277e-05 -2.133e-05 0. 
6.768e-05 -2.13377e-05 0. 
6.777e-05 -2.1342e-05 0. 
6.786e-05 -2.1342e-05 0. 
6.795e-05 -2.13443e-05 0. 
6.804e-05 -2.13412e-05 0. 
6.813e-05 -2.1347e-05 0. 
6.822e-05 -2.13454e-05 0. 
6.831e-05 -2.13486e-05 0. 
6.84e-05 -2.13547e-05 0. 
6.849e-05 -2.13526e-05 0. 
6.858e-05 -2.13533e-05 0. 
6.867e-05 -2.13555e-05 0. 
6.876e-05 -2.13637e-05 0. 
6.885e-05 -2.1366e-05 0. 
6.894e-05 -2.1369e-05 0. 
6.903e-05 -2.13762e-05 0. 
6.912e-05 -2.1376e-05 0. 
6.921e-05 -2.13851e-05 0. 
6.93e-05 -2.13909e-05 0. 
6.939e-05 -2.13875e-05 0. 
6.948e-05 -2.13853e-05 0. 
6.957e-05 -2.13939e-05 0. 
6.966e-05 -2.13966e-05 0. 
6.975e-05 -2.14045e-05 0. 
6.984e-05 -2.14113e-05 0. 
6.993e-05 -2.14178e-05 0. 
7.002e-05 -2.14162e-05 0. 
7.011e-05 -2.14124e-05 0. 
7.02e-05 -2.14168e-05 0. 
7.965e-05 -2.14175e-05 0. 
7.974e-05 -2.14096e-05 0. 
7.983e-05 -2.14026e-05 0. 
7.992e-05 -2.14033e-05 0. 
8.001e-05 -2.13958e-05 0. 
8.01e-05 -2.13994e-05 0. 
8.019e-05 -2.14002e-05 0. 
8.028e-05 -2.14007e-05 0. 
8.037e-05 -2.13984e-05 0. 
8.046e-05 -2.13969e-05 0. 
8.055e-05 -2.13917e-05 0. 
8.064e-05 -2.13891e-05 0. 
8.073e-05 -2.13853e-05 0. 
8.082e-05 -2.13836e-05 0. 
8.091e-05 -2.13751e-05 0. 
8.1e-05 -2.13761e-05 0. 
8.109e-05 -2.13718e-05 0. 
8.118e-05 -2.13741e-05 0. 
8.127e-05 -2.13727e-05 0. 
8.136e-05 -2.13614e-05 0. 
8.145e-05 -2.13602e-05 0. 
8.154e-05 -2.13634e-05 0. 
8.163e-05 -2.13602e-05 0. 
8.172e-05 -2.13545e-05 0. 
8.181e-05 -2.13438e-05 0. 
8.19e-05 -2.1337e-05 0. 
8.199e-05 -2.13371e-05 0. 
8.208e-05 -2.1337e-05 0. 
8.217e-05 -2.13301e-05 0. 
8.2171e-05 -2.133e-05 0. 
6.59861e-05 -2.124e-05 0. 
6.606e-05 -2.12475e-05 0. 
6.615e-05 -2.12511e-05 0. 
6.624e-05 -2.12563e-05 0. 
6.633e-05 -2.12692e-05 0. 
6.642e-05 -2.12748e-05 0. 
6.651e-05 -2.12808e-05 0. 
6.66e-05 -2.12847e-05 0. 
6.669e-05 -2.12882e-05 0. 
6.678e-05 -2.12949e-05 0. 
6.687e-05 -2.12977e-05 0. 
6.696e-05 -2.12911e-05 0. 
6.705e-05 -2.12888e-05 0. 
6.714e-05 -2.1301e-05 0. 
6.723e-05 -2.13098e-05 0. 
6.732e-05 -2.13157e-05 0. 
6.741e-05 -2.13179e-05 0. 
6.75e-05 -2.13203e-05 0. 
6.759e-05 -2.13245e-05 0. 
8.226e-05 -2.13238e-05 0. 
8.235e-05 -2.13164e-05 0. 
8.244e-05 -2.13057e-05 0. 
8.253e-05 -2.1301e-05 0. 
8.262e-05 -2.12964e-05 0. 
8.271e-05 -2.12929e-05 0. 
8.28e-05 -2.12866e-05 0. 
8.289e-05 -2.12827e-05 0. 
8.298e-05 -2.12812e-05 0. 
8.307e-05 -2.12742e-05 0. 
8.316e-05 -2.12632e-05 0. 
8.325e-05 -2.12597e-05 0. 
8.334e-05 -2.12622e-05 0. 
8.343e-05 -2.1257e-05 0. 
8.352e-05 -2.12522e-05 0. 
8.361e-05 -2.12466e-05 0. 
8.37e-05 -2.1244e-05 0. 
8.379e-05 -2.12403e-05 0. 
8.37939e-05 -2.124e-05 0. 
6.46582e-05 -2.115e-05 0. 
6.471e-05 -2.11547e-05 0. 
6.48e-05 -2.11583e-05 0. 
6.489e-05 -2.11695e-05 0. 
6.498e-05 -2.11765e-05 0. 
6.507e-05 -2.11802e-05 0. 
6.516e-05 -2.11832e-05 0. 
6.525e-05 -2.11888e-05 0. 
6.534e-05 -2.11959e-05 0. 
6.543e-05 -2.12003e-05 0. 
6.552e-05 -2.12014e-05 0. 
6.561e-05 -2.12044e-05 0. 
6.57e-05 -2.12113e-05 0. 
6.579e-05 -2.122e-05 0. 
6.588e-05 -2.12309e-05 0. 
6.597e-05 -2.12384e-05 0. 
8.388e-05 -2.12333e-05 0. 
8.397e-05 -2.12273e-05 0. 
8.406e-05 -2.12184e-05 0. 
8.415e-05 -2.12138e-05 0. 
8.424e-05 -2.12047e-05 0. 
8.433e-05 -2.12033e-05 0. 
8.442e-05 -2.12012e-05 0. 
8.451e-05 -2.11919e-05 0. 
8.46e-05 -2.11847e-05 0. 
8.469e-05 -2.11759e-05 0. 
8.478e-05 -2.11694e-05 0. 
8.487e-05 -2.11621e-05 0. 
8.496e-05 -2.11601e-05 0. 
8.505e-05 -2.11574e-05 0. 
8.514e-05 -2.11547e-05 0. 
8.51771e-05 -2.115e-05 0. 
6.34935e-05 -2.106e-05 0. 
6.354e-05 -2.10624e-05 0. 
6.363e-05 -2.10695e-05 0. 
6.372e-05 -2.10772e-05 0. 
6.381e-05 -2.10818e-05 0. 
6.39e-05 -2.10866e-05 0. 
6.399e-05 -2.10851e-05 0. 
6.408e-05 -2.10912e-05 0. 
6.417e-05 -2.11085e-05 0. 
6.426e-05 -2.11145e-05 0. 
6.435e-05 -2.11196e-05 0. 
6.444e-05 -2.11301e-05 0. 
6.453e-05 -2.11372e-05 0. 
6.462e-05 -2.11466e-05 0. 
8.523e-05 -2.11432e-05 0. 
8.532e-05 -2.1144e-05 0. 
8.541e-05 -2.11403e-05 0. 
8.55e-05 -2.11401e-05 0. 
8.559e-05 -2.11376e-05 0. 
8.568e-05 -2.11274e-05 0. 
8.577e-05 -2.11221e-05 0. 
8.586e-05 -2.11194e-05 0. 
8.595e-05 -2.11124e-05 0. 
8.604e-05 -2.11075e-05 0. 
8.613e-05 -2.11019e-05 0. 
8.622e-05 -2.10922e-05 0. 
8.631e-05 -2.10828e-05 0. 
8.64e-05 -2.1074e-05 0. 
8.649e-05 -2.10636e-05 0. 
8.65767e-05 -2.106e-05 0. 
6.24268e-05 -2.097e-05 0. 
6.246e-05 -2.09738e-05 0. 
6.255e-05 -2.09849e-05 0. 
6.264e-05 -2.09937e-05 0. 
6.273e-05 -2.10047e-05 0. 
6.282e-05 -2.10101e-05 0. 
6.291e-05 -2.10183e-05 0. 
6.3e-05 -2.10269e-05 0. 
6.309e-05 -2.10356e-05 0. 
6.318e-05 -2.10428e-05 0. 
6.327e-05 -2.10495e-05 0. 
6.336e-05 -2.10551e-05 0. 
6.345e-05 -2.10578e-05 0. 
8.658e-05 -2.10599e-05 0. 
8.667e-05 -2.10539e-05 0. 
8.676e-05 -2.10469e-05 0. 
8.685e-05 -2.10369e-05 0. 
8.694e-05 -2.10246e-05 0. 
8.703e-05 -2.10166e-05 0. 
8.712e-05 -2.10085e-05 0. 
8.721e-05 -2.10016e-05 0. 
8.73e-05 -2.09924e-05 0. 
8.739e-05 -2.09888e-05 0. 
8.748e-05 -2.09811e-05 0. 
8.757e-05 -2.09719e-05 0. 
8.766e-05 -2.09719e-05 0. 
8.76804e-05 -2.097e-05 0. 
6.15585e-05 -2.088e-05 0. 
6.156e-05 -2.08802e-05 0. 
6.165e-05 -2.08994e-05 0. 
6.174e-05 -2.08988e-05 0. 
6.183e-05 -2.09097e-05 0. 
6.192e-05 -2.09115e-05 0. 
6.201e-05 -2.09257e-05 0. 
6.21e-05 -2.09351e-05 0. 
6.219e-05 -2.09436e-05 0. 
6.228e-05 -2.09526e-05 0. 
6.237e-05 -2.09634e-05 0. 
8.775e-05 -2.09635e-05 0. 
8.784e-05 -2.09509e-05 0. 
8.793e-05 -2.09414e-05 0. 
8.802e-05 -2.09348e-05 0. 
8.811e-05 -2.09259e-05 0. 
8.82e-05 -2.09162e-05 0. 
8.829e-05 -2.09128e-05 0. 
8.838e-05 -2.08906e-05 0. 
8.847e-05 -2.08852e-05 0. 
8.84822e-05 -2.088e-05 0. 
6.12654e-05 -2.079e-05 0. 
6.129e-05 -2.08146e-05 0. 
6.138e-05 -2.08463e-05 0. 
6.147e-05 -2.08658e-05 0. 
8.856e-05 -2.08466e-05 0. 
8.865e-05 -2.08668e-05 0. 
8.87299e-05 -2.079e-05 0. 
6.12005e-05 -2.07e-05 0. 
8.874e-05 -2.07768e-05 0. 
8.8796e-05 -2.07e-05 0. 
6.11779e-05 -2.061e-05 0. 
6.12e-05 -2.06981e-05 0. 
8.88138e-05 -2.061e-05 0. 
6.11726e-05 -2.052e-05 0. 
8.88151e-05 -2.052e-05 0. 
6.11716e-05 -2.043e-05 0. 
8.88173e-05 -2.043e-05 0. 
6.1173e-05 -2.034e-05 0. 
8.88197e-05 -2.034e-05 0. 
6.11731e-05 -2.025e-05 0. 
8.8821e-05 -2.025e-05 0. 
6.11711e-05 -2.016e-05 0. 
8.88261e-05 -2.016e-05 0. 
6.1175e-05 -2.007e-05 0. 
8.88278e-05 -2.007e-05 0. 
6.11732e-05 -1.998e-05 0. 
8.88296e-05 -1.998e-05 0. 
6.1178e-05 -1.989e-05 0. 
8.88282e-05 -1.989e-05 0. 
6.11762e-05 -1.98e-05 0. 
8.883e-05 -1.9857e-05 0. 
8.88332e-05 -1.98e-05 0. 
6.1177e-05 -1.971e-05 0. 
8.883e-05 -1.97438e-05 0. 
8.88281e-05 -1.971e-05 0. 
6.11765e-05 -1.962e-05 0. 
8.88284e-05 -1.962e-05 0. 
6.11756e-05 -1.953e-05 0. 
8.88299e-05 -1.953e-05 0. 
6.11732e-05 -1.944e-05 0. 
8.883e-05 -1.95264e-05 0. 
8.88313e-05 -1.944e-05 0. 
6.11722e-05 -1.935e-05 0. 
8.883e-05 -1.93653e-05 0. 
8.88297e-05 -1.935e-05 0. 
6.11784e-05 -1.926e-05 0. 
8.88292e-05 -1.926e-05 0. 
6.11697e-05 -1.917e-05 0. 
8.88299e-05 -1.917e-05 0. 
6.11688e-05 -1.908e-05 0. 
8.883e-05 -1.91664e-05 0. 
8.8833e-05 -1.908e-05 0. 
6.11762e-05 -1.899e-05 0. 
8.883e-05 -1.90529e-05 0. 
8.88231e-05 -1.899e-05 0. 
[...]
POINT_DATA 2451
SCALARS Coverage0 float 1
LOOKUP_TABLE default
0.265518
0.265518
0.272782
0.279657
0.274732
0.261062
0.257779
0.264043
0.264292
0.27578
0.2742
0.282371
0.252283
0.277836
0.280565
0.26163
0.267989
0.280917
0.282215
0.271251
0.265724
0.269321
0.280238
0.282081
0.295079
0.264332
0.295192
0.283456
0.279753
0.27261
0.290615
0.269665
0.280713
0.301622
0.300491
0.307559
0.297824
0.303581
0.263011
0.266179
0.266064
0.284842
0.265253
0.268891
0.253637
0.249272
0.266279
0.274786
0.259427
0.273227
0.268645
0.273328
0.255349
0.274983
0.246945
0.274553
0.288172
0.262944
0.23885
0.278836
0.281352
0.283778
0.284643
0.278998
0.262478
0.271193
0.267813
0.266487
0.284462
0.273628
0.279446
0.29274
0.309715
0.260513
0.270767
0.283681
0.296117
0.293329
0.267155
0.241542
0.28393
0.292703
0.273447
0.277892
0.283074
0.280766
0.296005
0.292786
0.260734
0.246443
0.251473
0.237962
0.273435
0.266172
0.277004
0.265708
0.277111
0.263165
0.244994
0.254542
0.284339
0.291713
0.281065
0.290143
0.261687
0.266581
0.256586
0.261869
0.233197
0.252903
0.252676
0.258898
0.276418
0.233202
0.230713
0.251656
0.289399
0.310713
0.259835
0.263484
0.285058
0.285444
0.278742
0.262025
0.252227
0.260686
0.249305
0.26985
0.264756
0.280716
0.258356
0.260166
0.270611
0.266685
0.26594
0.257023
0.266581
0.285537
0.246547
0.249824
0.227012
0.243149
0.278539
0.261619
0.269927
0.254006
0.251708
0.283714
0.289293
0.285038
0.271671
0.251645
0.242661
0.266696
0.28959
0.285996
0.254232
0.261501
0.261337
0.289327
0.288546
0.26829
0.261456
0.26087
0.256072
0.256072
0.268701
0.290916
0.287262
0.268917
0.259021
0.284317
0.29666
0.268298
0.273775
0.279875
0.299689
0.279181
0.248292
0.254067
0.241074
0.259133
0.273447
0.259476
0.256586
0.26666
0.290955
0.293402
0.26539
0.264269
0.256961
0.267864
0.255146
0.243338
0.236904
0.262998
0.267543
0.261704
0.290623
0.303211
0.281761
0.275146
0.248245
0.248245
0.259107
0.229735
0.204247
0.225697
0.258991
0.260154
0.253081
0.264486
0.245477
0.247694
0.239327
0.270252
0.263303
0.256749
0.259302
0.268701
0.254444
0.270692
0.269363
0.256871
0.26135
0.25096
0.251205
0.264778
0.25795
0.266977
0.251591
0.23884
0.239575
0.249398
0.256907
0.256907
0.251233
0.282455
0.281344
0.226172
0.231092
0.238516
0.238926
0.259085
0.281425
0.262638
0.254348
0.27313
0.262983
0.259107
0.253143
0.244287
0.251694
0.246917
0.266282
0.26049
0.252951
0.219746
0.229984
0.237469
0.25489
0.241321
0.206543
0.27988
0.260675
0.256086
0.245245
0.245245
0.257547
0.227469
0.201141
0.244834
0.258372
0.255792
0.256247
0.221471
0.233898
0.255492
0.251233
0.256086
0.249961
0.245375
0.248636
0.250595
0.249151
0.267145
0.237225
0.242157
0.245734
0.244356
0.23851
0.250843
0.250843
0.267846
0.267846
0.225813
0.241817
0.234964
0.236776
0.238932
0.249168
0.240091
0.24341
0.239321
0.23718
0.232237
0.258464
0.262767
0.274865
0.23764
0.230442
0.258747
0.241298
0.241298
0.356148
0.356148
0.28686
0.259179
0.231559
0.285304
0.432855
0.515103
0.432855
0.59687
0.791793
0.515103
0.828365
0.850193
0.920094
0.976857
0.942726
0.844459
0.92535
0.870625
0.917179
0
0.96438
0
0.992335
0.945883
0.980863
0.903491
0.893163
0.948356
0.893163
0.759265
0.985892
0.353866
0.353866
0.914562
0.911502
0.867365
0.952599
0.885158
0.952599
0.986365
0.99822
0.759116
0.759116
0.950506
0.982011
0.81504
0.949357
1
0.949357
0.259017
0.958137
0.259017
0.999151
0.77366
0.92712
0.844414
0.930401
0.962162
0.930401
0.848878
1
0.927914
1
0.790428
0.994088
1
0.845889
0.878831
0.959725
0.960314
0.945982
0.9298
0.883771
0.844175
0.842828
0.976473
1
0.984424
0
0.93657
1
0
1
0.994059
0
0.803167
0.990551
0.760445
0.957246
0.877339
0.761542
1
0.938899
1
0.914978
0.867238
0.84876
0
0.759148
0.902336
0.775034
0
0.685457
0
1
0.685457
1
0
0.826226
0
1
0
0
0.858383
1
0.787699
1
0.468571
0.929771
0
0.854032
0.705591
0.855432
0.913469
0.770644
0.855432
1
0
0
0
0.853973
0
0.815497
0
0.815497
0
0
0
0.867431
0.867431
0
0.668433
0.867431
1
0
0
0
0
1
0
1
0
0.891267
0.891267
1
1
0
0
0
0.98973
0.98973
0.908418
0.908418
0.919626
0.98973
1
1
0.952652
0
0
0
0
0
0
0.922267
0
0.960329
0.830074
0.966136
0
0
0.830074
0
1
0
0
0
0
1
0
1
0
0
1
0
1
0
0.936657
0.936657
0.761765
0.936657
0
0
0.846884
1
1
0
0.800262
1
0.85148
0.821332
0.821332
1
1
0.794757
0
0
1
1
1
0
0
1
0
0
1
0
0
0
0
0
0.984465
0.984465
0
0
0
0
0
0.984465
0
0.973009
0
0
1
1
1
0.973009
1
1
1
1
0.983258
1
1
0.733585
0.733585
0
0
0.832336
0
0
0
1
1
0
0.9241
0.9241
1
0
0.946443
0.946443
0.9241
1
1
0.641805
0.946443
1
0.682862
0.641805
1
1
1
0
0
1
0
1
0.876241
0.876241
0.691999
0
0
0.876241
0
0
0
1
1
0
0.808429
0.808429
1
1
1
1
0.808429
1
1
1
1
1
1
1
0
0.99044
0.99044
1
0
0.99044
0
0
0.988922
0.988922
0
1
1
0.521765
0.521765
0.988922
1
0.574499
0
1
1
0
1
0
1
0
0.947034
0.947034
1
0
0.947034
0.735339
0
0
0.805864
0.805864
0.839687
0
1
1
0.839687
0.997233
0.997233
0
0
0.997233
1
0
0
1
0
0
0.810934
0
0.890604
0
0
0
0.890604
0.958073
0.958073
1
1
0.958073
0.802391
0.802391
0
1
1
0
0.971626
0.971626
1
1
0
0.971626
0.893882
0.893882
1
0.895596
0
0
0.895596
0
0
0
1
1
0
0
0
1
0
0
1
1
0.725007
0.725007
0
0.612823
0.725007
0.693214
0
1
0.612823
1
1
0.802101
0
0
0.802101
0
1
0.851911
0.851911
1
0.728634
0.851911
1
1
0.809172
0.99529
0.99529
0.788824
0.788824
0.99529
0
1
1
0
1
1
1
1
0
1
1
0
1
1
1
0
0
0.896566
0
0.896566
1
0
0
0
1
0.906563
0.906563
1
0
0
0
0.832217
0.906563
0
0
0
0.994137
1
1
1
1
0.994137
1
0
0
0
0
1
0
0
1
0
1
0
0
1
0.866374
1
1
1
0
1
1
1
1
0
0
0
0
0.964808
0
0.964808
1
0.844639
0.964808
0
0
1
0.844639
1
1
0
0
0
0.874206
0
1
0
0
0
0.874206
0.976515
0.976515
0.99765
0
0.976515
0.99765
0.706209
1
0.683797
0
0.720331
0.720331
0
0
1
1
1
0
0.995241
1
0
0
0
1
0.995241
0
1
1
0.995056
0.995056
0
1
1
0.995056
0.913948
0.913948
1
0
0
0
1
1
1
1
1
0
0
0
0
0
0
0
1
1
1
1
1
0
0.972192
0
0.972192
1
1
1
1
0.85096
0.972192
0
0
0
0
0
0.85096
1
1
0
1
1
0
0
1
0
0
0
0.814451
1
0.814451
0
0
0
0
0
0
1
0
0
0
0
0
0.868002
0.981543
0.981543
0
0
1
0.868002
0.981543
0
0
0
1
1
1
0.841229
0
0
0.841229
0.753309
0
0
0
0
0
0.961976
0.991042
1
0.961976
0.663611
0.663611
1
0.750354
1
0.649971
0.649971
0.775057
0.775057
1
0.823712
0.649971
1
1
0
1
0.978058
0.978058
0
1
0
0.978058
0
1
1
1
1
1
0.788977
1
0.951572
0.951572
0.645155
0.645155
0
0.951572
0
1
0
0
0
0
0
0
0
0
0
1
1
0.988044
0.988044
0.822823
0.965015
0.988044
0.822823
0.769177
1
1
0
0.965015
0
1
1
0.997399
0.997399
0
1
1
0.997399
0.509367
0.76881
0
0
1
0
0
0
0.780682
1
0.804288
0.804288
0
0
0
0.77406
1
0
1
1
1
1
1
1
1
1
1
0
1
0.871248
0
0.995869
0.988165
0.988165
0.676791
0.910962
0.910962
0.995869
0.988165
0.676791
0.892282
0.807416
0.713902
0.713902
0
0
0.807416
0
0
1
0.854154
0.854154
0.99083
0.99083
0
0.618026
0.618026
0.782514
0.854154
0.99083
0.719868
0.719868
0
0.747938
1
0.903462
0.903462
0.752397
0.783545
0.783545
0.523386
0.903462
1
0.783545
0.598526
0.643005
0.377725
0.354744
0.366985
0.359028
0.388396
0.359139
0.350055
0.364916
0.362719
0.344048
0.374059
0.374414
0.376478
0.372045
0.367052
0.35041
0.355819
0.372933
0.377354
0.372385
0.386317
0.377723
0.363333
0.365199
0.367822
0.386053
0.376907
0.352354
0.348031
0.368171
0.390181
0.39493
0.358233
0.345478
0.353193
0.339996
0.360682
0.382377
0.366999
0.370437
0.360737
0.352087
0.363769
0.362049
0.379558
0.392142
0.374254
0.343507
0.358834
0.360306
0.350728
0.364335
0.36918
0.362498
0.368875
0.368357
0.363964
0.376311
0.366694
0.361347
0.377265
0.371024
0.366182
0.374354
0.359385
0.376648
0.358321
0.342093
0.362953
0.353963
0.360986
0.379561
0.376277
0.365143
0.349961
0.334569
0.373838
0.374235
0.382885
0.365707
0.372054
0.371234
0.353555
0.369738
0.383207
0.34952
0.357359
0.35241
0.370542
0.383169
0.38835
0.365354
0.36716
0.373185
0.359263
0.346289
0.371442
0.365355
0.362756
0.354312
0.367081
0.356538
0.382522
0.380707
0.361784
0.362638
0.375377
0.373633
0.36922
0.356804
0.357162
0.36256
0.363445
0.369014
0.382783
0.362249
0.370808
0.372737
0.374988
0.381594
0.367923
0.370745
0.369452
0.360191
0.354459
0.354331
0.362209
0.352871
0.367134
0.367752
0.352565
0.351766
0.361728
0.377714
0.374762
0.368405
0.377954
0.383258
0.375162
0.380923
0.348324
0.357155
0.366259
0.370486
0.35683
0.365996
0.370673
0.377781
0.355089
0.381197
0.374512
0.392431
0.351727
0.35497
0.366144
0.357182
0.367224
0.36447
0.379533
0.377016
0.353049
0.376713
0.364061
0.363526
0.378494
0.365863
0.372936
0.360269
0.371341
0.350607
0.369678
0.359096
0.343478
0.356614
0.381466
0.378523
0.356505
0.368102
0.371572
0.374469
0.348832
0.37297
0.365225
0.369644
0.373777
0.355165
0.366263
0.368465
0.363919
0.379535
0.367669
0.361595
0.366377
0.367583
0.371573
0.367703
0.374725
0.374573
0.360266
0.365161
0.378678
0.366028
0.344557
0.356285
0.377554
0.376019
0.371678
0.349882
0.344351
0.356631
0.367592
0.381001
0.374284
0.374512
0.36787
0.368771
0.382908
0.347574
0.355824
0.375539
0.34565
0.359229
0.373579
0.362258
0.35573
0.353296
0.346305
0.383264
0.383529
0.381425
0.368888
0.377395
0.347642
0.341307
0.35334
0.376686
0.379435
0.355112
0.375943
0.38097
0.359843
0.332978
0.36935
0.386937
0.358495
0.356384
0.373295
0.378592
0.359324
0.357467
0.37448
0.346097
0.343191
0.372114
0.390644
0.354744
0.349546
0.350841
0.358947
0.359598
0.354189
0.371134
0.364036
0.379662
0.37079
0.380411
0.361417
0.349938
0.357141
0.379457
0.367729
0.378235
0.376867
0.364452
0.386458
0.373154
0.38174
0.380753
0.368327
0.359723
0.353673
0.371203
0.363408
0.374717
0.357861
0.371669
0.369317
0.374375
0.36544
0.344378
0.364112
0.366343
0.336511
0.358796
0.367721
0.367627
0.366686
0.350904
0.378179
0.368796
0.366444
0.388437
0.357622
0.363945
0.344243
0.385376
0.360918
0.347985
0.360664
0.371148
0.374263
0.357651
0.371735
0.382373
0.365931
0.36753
0.375765
0.3676
0.353631
0.366651
0.351902
0.368477
0.362965
0.370057
0.375312
0.364127
0.341069
0.368288
0.35942
0.369741
0.372789
0.359507
0.365707
0.364667
0.380843
0.364807
0.362694
0.357453
0.37859
0.36964
0.376929
0.360599
0.358275
0.368794
0.369257
0.374247
0.36186
0.345401
0.397501
0.372387
0.362488
0.372
0.368469
0.37131
0.371998
0.35908
0.356059
0.354408
0.366294
0.370832
0.372853
0.386115
0.361128
0.35669
0.370681
0.380414
0.359812
0.373958
0.365711
0.356608
0.365467
0.366728
0.370772
0.371224
0.378868
0.378534
0.367178
0.385566
0.351939
0.363567
0.379386
0.355907
0.37927
0.370156
0.357893
0.377024
0.367973
0.367558
0.362928
0.367746
0.358158
0.375321
0.377664
0.35136
0.362211
0.370677
0.367959
0.361714
0.393642
0.364228
0.361151
0.367287
0.374343
0.36764
0.356585
0.346247
0.368083
0.377351
0.368511
0.368342
0.353374
0.355106
0.357217
0.38373
0.373002
0.349557
0.364691
0.361882
0.355913
0.361168
0.358072
0.377571
0.384765
0.368328
0.381381
0.379015
0.368157
0.353619
0.353706
0.372902
0.371764
0.351831
0.381265
0.358412
0.376468
0.365035
0.358849
0.370221
0.364264
0.370884
0.365938
0.359119
0.369342
0.360094
0.339219
0.364672
0.358219
0.364236
0.357331
0.361651
0.375643
0.35907
0.399901
0.364201
0.345552
0.364721
0.368953
0.345483
0.358948
0.37596
0.367539
0.342255
0.372428
0.39403
0.374135
0.387193
0.358984
0.355576
0.351167
0.366877
0.356446
0.377139
0.388136
0.366248
0.352344
0.358781
0.355395
0.377476
0.349498
0.366286
0.370959
0.35493
0.363203
0.383841
0.383564
0.365155
0.370144
0.372116
0.370792
0.357557
0.358136
0.374245
0.373326
0.352229
0.356462
0.363057
0.373978
0.390158
0.357275
0.342537
0.384717
0.377468
0.362599
0.357541
0.358015
0.368774
0.369999
0.359052
0.355741
0.367141
0.361597
0.359955
0.37945
0.388981
0.36188
0.370486
0.358316
0.358368
0.374621
0.370424
0.376234
0.363162
0.367618
0.354457
0.375145
0.371005
0.35741
0.356783
0.356795
0.370794
0.3773
0.365572
0.362952
0.381346
0.364431
0.365843
0.376748
0.361887
0.362468
0.371232
0.355753
0.374625
0.367698
0.361261
0.360728
0.366643
0.362208
0.375017
0.383829
0.370783
0.374591
0.349154
0.355148
0.353382
0.36162
0.362038
0.372275
0.389817
0.36682
0.355253
0.360126
0.355608
0.359331
0.350686
0.362697
0.365008
0.387554
0.371021
0.366419
0.377797
0.356711
0.360338
0.377925
0.370964
0.375959
0.375764
0.380086
0.337943
0.353072
0.367824
0.37599
0.361113
0.351234
0.355797
0.37079
0.359005
0.387816
0.364417
0.377103
0.3749
0.367635
0.377041
0.384109
0.375894
0.364846
0.369489
0.360508
0.348882
0.35977
0.359289
0.371669
0.367564
0.383523
0.382208
0.370289
0.360545
0.353706
0.377299
0.378505
0.345373
0.367822
0.357369
0.35426
0.359316
0.353053
0.369736
0.366095
0.36656
0.368762
0.366945
0.379533
0.366226
0.36824
0.359676
0.367722
0.385152
0.376033
0.373437
0.358669
0.360721
0.366408
0.357166
0.368101
0.3706
0.364584
0.361727
0.378018
0.366633
0.351031
0.362866
0.374401
0.370202
0.366936
0.359187
0.389919
0.372891
0.374115
0.377084
0.37512
0.367919
0.345155
0.370706
0.367278
0.359693
0.378459
0.367617
0.353412
0.362791
0.382908
0.364921
0.361478
0.365011
0.36218
0.379218
0.357684
0.369052
0.418082
0.388128
0.367854
0.389974
0.389784
0.343948
0.350785
0.356196
0.372374
0.362572
0.35745
0.375492
0.34511
0.370728
0.361385
0.373999
0.376261
0.364444
0.373501
0.359622
0.360271
0.376896
0.372219
0.337304
0.371196
0.367548
0.363135
0.367826
0.342203
0.389228
0.365294
0.36692
0.354864
0.370769
0.345056
0.359891
0.387705
0.392322
0.358235
0.35144
0.357469
0.369942
0.377707
0.378424
0.348647
0.364087
0.377317
0.370944
0.365784
0.364337
0.359046
0.385311
0.378914
0.377786
0.376663
0.353994
0.335266
0.348182
0.381018
0.364315
0.377839
0.355138
0.356792
0.357384
0.360236
0.393968
0.36631
0.362584
0.371122
0.369684
0.375304
0.347908
0.366578
0.357243
0.365157
0.366913
0.371111
0.366892
0.363012
0.35694
0.357686
0.358347
0.369181
0.366172
0.364867
0.357417
0.375335
0.369631
0.366435
0.356479
0.355374
0.368017
0.381822
0.374955
0.374062
0.370292
0.360138
0.362168
0.370963
0.365317
0.376212
0.365474
0.373976
0.358684
0.373045
0.35668
0.371955
0.378547
0.345955
0.372716
0.369898
0.375464
0.37244
0.364819
0.367618
0.356236
0.357301
0.383197
0.370942
0.366104
0.364433
0.354813
0.367233
0.359268
0.363085
0.386094
0.387313
0.364486
0.370059
0.366158
0.370793
0.370635
0.368907
0.355139
0.376047
0.355562
0.368397
0.36652
0.359134
0.365161
0.371108
0.357721
0.362841
0.359044
0.369251
0.384056
0.359472
0.374499
0.385879
0.366044
0.357061
0.35921
0.379752
0.36267
0.366068
0.378746
0.357607
0.349507
0.372859
0.365022
0.360708
0.365175
0.349458
0.373871
0.358496
0.369022
0.366927
0.362963
0.354316
0.377389
0.36896
0.365063
0.369028
0.373871
0.377233
0.358461
0.371655
0.377951
0.35743
0.375635
0.371911
0.350351
0.393702
0.348754
0.353737
0.356822
0.363448
0.368422
0.380288
0.360353
0.36991
0.380602
0.359838
0.354489
0.335249
0.37384
0.386548
0.358183
0.362188
0.386372
0.364717
0.362203
0.382166
0.372463
0.369672
0.35043
0.360697
0.356014
0.357541
0.373439
0.370237
0.362091
0.359628
0.382349
0.376762
0.375965
0.370233
0.358132
0.356962
0.340085
0.364393
0.3663
0.358866
0.363463
0.361111
0.365546
0.366701
0.355062
0.359113
0.36033
0.366559
0.347608
0.382473
0.37865
0.358142
0.366801
0.357556
0.39032
0.386609
0.371673
0.368088
0.365499
0.352832
0.366298
0.37134
0.373796
0.343181
0.37201
0.377208
0.371965
0.360152
0.351849
0.375164
0.372088
0.368033
0.379448
0.377081
0.362155
0.361088
0.375857
0.352729
0.362272
0.365108
0.38362
0.364839
0.349323
0.35265
0.371485
0.384018
0.362494
0.359089
0.349615
0.370663
0.36365
0.378618
0.383444
0.365041
0.336817
0.357172
0.361
0.373096
0.370349
0.369607
0.385725
0.371928
0.34964
0.355729
0.369739
0.373463
0.365213
0.359029
0.364959
0.359079
0.369993
0.35865
0.367482
0.375009
0.367014
0.35142
0.35944
0.369322
0.373674
0.350675
0.356626
0.388252
0.379371
0.37648
0.364275
0.359106
0.365105
0.366415
0.375406
0.358181
0.364153
0.349804
0.375504
0.376333
0.341501
0.381904
0.362882
0.35245
0.372989
0.368496
0.368536
0.372395
0.363228
0.361531
0.372472
0.372172
0.370215
0.349734
0.371893
0.349652
0.35696
0.366321
0.356803
0.381696
0.384117
0.372234
0.376755
0.358913
0.364274
0.380449
0.355836
0.364101
0.377122
0.370487
0.367891
0.366865
0.356212
0.363144
0.374638
0.352816
0.363697
0.373447
0.366994
0.38185
0.37476
0.36401
0.349464
0.375617
0.369735
0.385423
0.373304
0.369441
0.358707
0.349146
0.357658
0.385915
0.377388
0.379935
0.360707
0.379434
0.375451
0.361204
0.36897
0.362859
0.33828
0.357076
0.361644
0.373903
0.367572
0.376668
0.368075
0.359448
0.361442
0.378536
0.358226
0.366242
0.349861
0.358279
0.37098
0.376008
0.36587
0.373634
0.364647
0.364714
0.37399
0.332102
0.368682
0.378991
0.376046
0.344474
0.361601
0.372388
0.370171
0.376307
0.373893
0.34141
0.384328
0.370818
0.363514
0.354325
0.353649
0.372044
0.369069
0.383136
0.36836
0.358153
0.382497
0.367595
0.362543
0.363969
0.351065
0.348611
0.366216
0.356814
0.347143
0.363694
0.38109
0.390112
0.36509
0.368995
0.359208
0.367016
0.361128
0.36599
0.381145
0.37922
0.359089
0.367285
0.347927
0.369922
0.364267
0.352189
0.356594
0.343356
0.374555
0.384852
0.378989
0.361894
0.371838
0.374126
0.370618
0.388069
0.361347
0.357902
0.372426
0.347616
0.36183
0.376285
0.366924
0.363721
0.358574
0.34775
0.382724
0.382551
0.362421
0.350264
0.376661
0.35205
0.367626
0.374225
0.371094
0.371489
0.362399
0.365284
0.366231
0.363135
0.361348
0.363741
0.376133
0.338117
0.380464
0.373312
0.367589
0.369632
0.369373
0.384474
0.370754
0.356513
0.36852
0.365859
0.372525
0.370441
0.344678
0.349436
0.369982
0.382732
0.343809
0.371986
0.37098
0.359302
0.366547
0.352925
0.361867
0.367543
0.35545
0.362175
0.380859
0.384587
0.367247
0.374698
0.354683
0.364884
0.370767
0.359897
0.360199
0.36241
0.379839
0.375355
0.369573
0.356578
0.363384
0.37827
0.367353
0.370817
0.36014
0.360866
0.380984
0.356162
0.365034
0.378758
0.368602
0.351487
0.364417
0.364324
0.366356
0.385844
0.369629
0.375556
0.355211
0.365423
0.370135
0.36413
0.356255
0.371008
0.378657
0.359643
0.369352
0.387457
0.362249
0.352792
0.358249
0.361556
0.372247
0.383159
0.359942
0.353955
0.367069
0.377573
0.368516
0.359604
0.353314
0.367462
0.386319
0.350035
0.369439
0.372178
0.352228
0.373583
0.363389
0.379522
0.375107
0.35036
0.36161
0.368741
0.369327
0.365965
0.365466
0.353058
0.353377
0.361521
0.366947
0.365348
0.361591
0.375303
0.389096
0.35131
0.355281
0.384711
0.357512
0.358383
0.357242
0.364348
0.394784
0.347523
0.367399
0.374311
0.363051
0.358562
0.376765
0.382604
0.369385
0.352386
0.359772
0.362441
0.353435
0.364433
0.370464
0.387777
0.363002
0.37568
0.368959
0.361447
0.365999
0.370596
0.370729
0.388621
0.390617
0.348256
0.369775
0.362307
0.36458
0.364767
0.375263
0.345729
0.38855
0.368226
0.347905
0.360033
0.373567
0.379447
0.351178
0.353372
0.380832
0.356171
0.352811
0.366491
0.377654
0.360912
0.371545
0.372509
0.372288
0.370696
0.36639
0.358846
0.372722
0.364945
0.366372
0.379437
0.371728
0.368524
0.371572
0.360166
0.356787
0.349406
0.381094
0.394479
0.363634
0.357541
0.359706
0.372458
0.35106
0.36434
0.373006
0.377725
SCALARS Coverage1 float 1
LOOKUP_TABLE default
0.166775
0.166775
0.153035
0.155934
0.16443
0.171426
0.183125
0.186645
0.172768
0.162377
0.161863
0.154503
0.173479
0.160581
0.184001
0.186414
0.182797
0.18246
0.163668
0.181805
0.189502
0.187466
0.181395
0.183894
0.175743
0.219845
0.177816
0.166614
0.171329
0.181651
0.176127
0.166545
0.166975
0.171832
0.174497
0.172714
0.163305
0.165196
0.189485
0.200744
0.179753
0.16327
0.186666
0.183385
0.169401
0.174313
0.176294
0.19695
0.207602
0.189424
0.178701
0.177736
0.184859
0.183007
0.190516
0.211073
0.194948
0.205718
0.178784
0.174264
0.179567
0.179432
0.168114
0.178696
0.203152
0.182776
0.172208
0.182305
0.177004
0.189326
0.189346
0.168743
0.135273
0.173532
0.198188
0.175239
0.173244
0.187988
0.176681
0.182846
0.199465
0.178227
0.16833
0.163789
0.171903
0.177347
0.165701
0.179603
0.189157
0.198893
0.167135
0.197044
0.199653
0.186552
0.156106
0.1687
0.180207
0.204364
0.212274
0.191267
0.167822
0.185832
0.173261
0.167907
0.186807
0.189005
0.192955
0.18164
0.194928
0.178433
0.194044
0.189749
0.158454
0.187942
0.188133
0.168974
0.152621
0.171397
0.210232
0.187971
0.164885
0.155257
0.173204
0.202629
0.184743
0.187089
0.188275
0.170574
0.18241
0.175879
0.183574
0.179312
0.184242
0.168443
0.184929
0.182393
0.189005
0.183433
0.201133
0.199471
0.205715
0.19553
0.161684
0.200722
0.179705
0.182899
0.203768
0.184399
0.178177