# vtk DataFile Version 2.0
2D Surface
ASCII
DATASET UNSTRUCTURED_GRID
POINTS 1905 float
6.53489e-05 -7.29e-06 0. 
6.543e-05 -7.30169e-06 0. 
6.552e-05 -7.30344e-06 0. 
6.561e-05 -7.30636e-06 0. 
6.57e-05 -7.30657e-06 0. 
6.579e-05 -7.29591e-06 0. 
6.588e-05 -7.29089e-06 0. 
6.597e-05 -7.2961e-06 0. 
6.606e-05 -7.29682e-06 0. 
6.615e-05 -7.30413e-06 0. 
6.624e-05 -7.30661e-06 0. 
6.633e-05 -7.30918e-06 0. 
6.642e-05 -7.30943e-06 0. 
6.651e-05 -7.30673e-06 0. 
6.66e-05 -7.31044e-06 0. 
6.669e-05 -7.31034e-06 0. 
6.678e-05 -7.31036e-06 0. 
6.687e-05 -7.31614e-06 0. 
6.696e-05 -7.318e-06 0. 
6.705e-05 -7.31594e-06 0. 
6.714e-05 -7.32199e-06 0. 
6.723e-05 -7.31876e-06 0. 
6.732e-05 -7.31512e-06 0. 
6.741e-05 -7.32181e-06 0. 
6.75e-05 -7.32252e-06 0. 
6.759e-05 -7.3273e-06 0. 
6.768e-05 -7.32798e-06 0. 
6.777e-05 -7.32505e-06 0. 
6.786e-05 -7.32959e-06 0. 
6.795e-05 -7.3253e-06 0. 
6.804e-05 -7.31949e-06 0. 
6.813e-05 -7.31986e-06 0. 
6.822e-05 -7.32219e-06 0. 
6.831e-05 -7.32377e-06 0. 
6.84e-05 -7.33234e-06 0. 
6.849e-05 -7.34255e-06 0. 
6.858e-05 -7.34646e-06 0. 
6.867e-05 -7.34499e-06 0. 
6.876e-05 -7.34923e-06 0. 
6.885e-05 -7.34826e-06 0. 
6.894e-05 -7.34508e-06 0. 
6.903e-05 -7.33465e-06 0. 
6.912e-05 -7.33414e-06 0. 
6.921e-05 -7.33196e-06 0. 
6.93e-05 -7.33037e-06 0. 
6.939e-05 -7.33717e-06 0. 
6.948e-05 -7.33923e-06 0. 
6.957e-05 -7.34301e-06 0. 
6.966e-05 -7.33963e-06 0. 
6.975e-05 -7.34228e-06 0. 
6.984e-05 -7.34373e-06 0. 
6.993e-05 -7.33623e-06 0. 
7.002e-05 -7.34465e-06 0. 
7.011e-05 -7.34644e-06 0. 
7.02e-05 -7.34562e-06 0. 
7.029e-05 -7.34286e-06 0. 
7.038e-05 -7.33801e-06 0. 
7.047e-05 -7.34182e-06 0. 
7.056e-05 -7.34759e-06 0. 
7.065e-05 -7.34754e-06 0. 
7.074e-05 -7.34935e-06 0. 
7.083e-05 -7.34674e-06 0. 
7.092e-05 -7.35063e-06 0. 
7.101e-05 -7.35009e-06 0. 
7.11e-05 -7.35038e-06 0. 
7.119e-05 -7.34018e-06 0. 
7.128e-05 -7.33534e-06 0. 
7.137e-05 -7.33862e-06 0. 
7.146e-05 -7.33586e-06 0. 
7.155e-05 -7.34077e-06 0. 
7.164e-05 -7.34222e-06 0. 
7.173e-05 -7.34014e-06 0. 
7.182e-05 -7.33515e-06 0. 
7.191e-05 -7.33921e-06 0. 
7.2e-05 -7.34773e-06 0. 
7.209e-05 -7.34456e-06 0. 
7.218e-05 -7.34553e-06 0. 
7.227e-05 -7.34868e-06 0. 
7.236e-05 -7.35641e-06 0. 
7.245e-05 -7.3555e-06 0. 
7.254e-05 -7.35298e-06 0. 
7.263e-05 -7.3522e-06 0. 
7.272e-05 -7.35601e-06 0. 
7.281e-05 -7.34999e-06 0. 
7.29e-05 -7.35405e-06 0. 
7.299e-05 -7.36192e-06 0. 
7.308e-05 -7.36103e-06 0. 
7.317e-05 -7.36488e-06 0. 
7.326e-05 -7.36611e-06 0. 
7.335e-05 -7.36345e-06 0. 
7.344e-05 -7.35316e-06 0. 
7.353e-05 -7.34469e-06 0. 
7.362e-05 -7.3417e-06 0. 
7.371e-05 -7.34733e-06 0. 
7.38e-05 -7.34911e-06 0. 
7.389e-05 -7.34558e-06 0. 
7.398e-05 -7.34512e-06 0. 
7.407e-05 -7.35324e-06 0. 
7.416e-05 -7.35917e-06 0. 
7.425e-05 -7.35781e-06 0. 
7.434e-05 -7.35435e-06 0. 
7.443e-05 -7.35104e-06 0. 
7.452e-05 -7.35978e-06 0. 
7.461e-05 -7.36325e-06 0. 
7.47e-05 -7.36077e-06 0. 
7.479e-05 -7.36176e-06 0. 
7.488e-05 -7.35753e-06 0. 
7.497e-05 -7.356e-06 0. 
7.506e-05 -7.35462e-06 0. 
7.515e-05 -7.3587e-06 0. 
7.524e-05 -7.361e-06 0. 
7.533e-05 -7.35565e-06 0. 
7.542e-05 -7.34231e-06 0. 
7.551e-05 -7.34387e-06 0. 
7.56e-05 -7.35281e-06 0. 
7.569e-05 -7.35453e-06 0. 
7.578e-05 -7.35141e-06 0. 
7.587e-05 -7.35169e-06 0. 
7.596e-05 -7.35301e-06 0. 
7.605e-05 -7.35364e-06 0. 
7.614e-05 -7.35319e-06 0. 
7.623e-05 -7.34864e-06 0. 
7.632e-05 -7.35263e-06 0. 
7.641e-05 -7.35367e-06 0. 
7.65e-05 -7.35444e-06 0. 
7.659e-05 -7.351e-06 0. 
7.668e-05 -7.34725e-06 0. 
7.677e-05 -7.3431e-06 0. 
7.686e-05 -7.35076e-06 0. 
7.695e-05 -7.35121e-06 0. 
7.704e-05 -7.35311e-06 0. 
7.713e-05 -7.35629e-06 0. 
7.722e-05 -7.361e-06 0. 
7.731e-05 -7.35747e-06 0. 
7.74e-05 -7.35113e-06 0. 
7.749e-05 -7.34547e-06 0. 
7.758e-05 -7.34565e-06 0. 
7.767e-05 -7.3401e-06 0. 
7.776e-05 -7.34377e-06 0. 
7.785e-05 -7.34192e-06 0. 
7.794e-05 -7.34339e-06 0. 
7.803e-05 -7.34923e-06 0. 
7.812e-05 -7.34009e-06 0. 
7.821e-05 -7.34065e-06 0. 
7.83e-05 -7.34614e-06 0. 
7.839e-05 -7.34787e-06 0. 
7.848e-05 -7.34425e-06 0. 
7.857e-05 -7.34274e-06 0. 
7.866e-05 -7.33921e-06 0. 
7.875e-05 -7.3465e-06 0. 
7.884e-05 -7.34663e-06 0. 
7.893e-05 -7.3461e-06 0. 
7.902e-05 -7.34807e-06 0. 
7.911e-05 -7.3526e-06 0. 
7.92e-05 -7.35004e-06 0. 
7.929e-05 -7.346e-06 0. 
7.938e-05 -7.34786e-06 0. 
7.947e-05 -7.35006e-06 0. 
7.956e-05 -7.34459e-06 0. 
7.965e-05 -7.35126e-06 0. 
7.974e-05 -7.34998e-06 0. 
7.983e-05 -7.34532e-06 0. 
7.992e-05 -7.33929e-06 0. 
8.001e-05 -7.33875e-06 0. 
8.01e-05 -7.33793e-06 0. 
8.019e-05 -7.3294e-06 0. 
8.028e-05 -7.3305e-06 0. 
8.037e-05 -7.33305e-06 0. 
8.046e-05 -7.33214e-06 0. 
8.055e-05 -7.32757e-06 0. 
8.064e-05 -7.33778e-06 0. 
8.073e-05 -7.33724e-06 0. 
8.082e-05 -7.33176e-06 0. 
8.091e-05 -7.33694e-06 0. 
8.1e-05 -7.33571e-06 0. 
8.109e-05 -7.33142e-06 0. 
8.118e-05 -7.32917e-06 0. 
8.127e-05 -7.33338e-06 0. 
8.136e-05 -7.32857e-06 0. 
8.145e-05 -7.32615e-06 0. 
8.154e-05 -7.33057e-06 0. 
8.163e-05 -7.33067e-06 0. 
8.172e-05 -7.33111e-06 0. 
8.181e-05 -7.32529e-06 0. 
8.19e-05 -7.32326e-06 0. 
8.199e-05 -7.31637e-06 0. 
8.208e-05 -7.31846e-06 0. 
8.217e-05 -7.3143e-06 0. 
8.226e-05 -7.31747e-06 0. 
8.235e-05 -7.31744e-06 0. 
8.244e-05 -7.31314e-06 0. 
8.253e-05 -7.31696e-06 0. 
8.262e-05 -7.31069e-06 0. 
8.271e-05 -7.31607e-06 0. 
8.28e-05 -7.31941e-06 0. 
8.289e-05 -7.32446e-06 0. 
8.298e-05 -7.32881e-06 0. 
8.307e-05 -7.32558e-06 0. 
8.316e-05 -7.31979e-06 0. 
8.325e-05 -7.31529e-06 0. 
8.334e-05 -7.31785e-06 0. 
8.343e-05 -7.32019e-06 0. 
8.352e-05 -7.31879e-06 0. 
8.361e-05 -7.31312e-06 0. 
8.37e-05 -7.30499e-06 0. 
8.379e-05 -7.3072e-06 0. 
8.388e-05 -7.3022e-06 0. 
8.397e-05 -7.29053e-06 0. 
8.406e-05 -7.29318e-06 0. 
8.415e-05 -7.29453e-06 0. 
8.424e-05 -7.29841e-06 0. 
8.433e-05 -7.30129e-06 0. 
8.442e-05 -7.29518e-06 0. 
8.44795e-05 -7.29e-06 0. 
6.29053e-05 -7.2e-06 0. 
6.291e-05 -7.20056e-06 0. 
6.3e-05 -7.20748e-06 0. 
6.309e-05 -7.21672e-06 0. 
6.318e-05 -7.21739e-06 0. 
6.327e-05 -7.2191e-06 0. 
6.336e-05 -7.22497e-06 0. 
6.345e-05 -7.22542e-06 0. 
6.354e-05 -7.22599e-06 0. 
6.363e-05 -7.23819e-06 0. 
6.372e-05 -7.24192e-06 0. 
6.381e-05 -7.23829e-06 0. 
6.39e-05 -7.24552e-06 0. 
6.399e-05 -7.24973e-06 0. 
6.408e-05 -7.2448e-06 0. 
6.417e-05 -7.25469e-06 0. 
6.426e-05 -7.25799e-06 0. 
6.435e-05 -7.26202e-06 0. 
6.444e-05 -7.26688e-06 0. 
6.453e-05 -7.26846e-06 0. 
6.462e-05 -7.26317e-06 0. 
6.471e-05 -7.26626e-06 0. 
6.48e-05 -7.27484e-06 0. 
6.489e-05 -7.27306e-06 0. 
6.498e-05 -7.26655e-06 0. 
6.507e-05 -7.27752e-06 0. 
6.516e-05 -7.28663e-06 0. 
6.525e-05 -7.28699e-06 0. 
6.534e-05 -7.28872e-06 0. 
8.451e-05 -7.28735e-06 0. 
8.46e-05 -7.2814e-06 0. 
8.469e-05 -7.27566e-06 0. 
8.478e-05 -7.27796e-06 0. 
8.487e-05 -7.27485e-06 0. 
8.496e-05 -7.27143e-06 0. 
8.505e-05 -7.27082e-06 0. 
8.514e-05 -7.26171e-06 0. 
8.523e-05 -7.26256e-06 0. 
8.532e-05 -7.26578e-06 0. 
8.541e-05 -7.26558e-06 0. 
8.55e-05 -7.26453e-06 0. 
8.559e-05 -7.26015e-06 0. 
8.568e-05 -7.25962e-06 0. 
8.577e-05 -7.2511e-06 0. 
8.586e-05 -7.24967e-06 0. 
8.595e-05 -7.2471e-06 0. 
8.604e-05 -7.24121e-06 0. 
8.613e-05 -7.24747e-06 0. 
8.622e-05 -7.24319e-06 0. 
8.631e-05 -7.242e-06 0. 
8.64e-05 -7.23581e-06 0. 
8.649e-05 -7.23061e-06 0. 
8.658e-05 -7.22322e-06 0. 
8.667e-05 -7.22045e-06 0. 
8.676e-05 -7.21813e-06 0. 
8.685e-05 -7.21767e-06 0. 
8.694e-05 -7.21119e-06 0. 
8.703e-05 -7.20213e-06 0. 
8.7057e-05 -7.2e-06 0. 
6.04982e-05 -7.11e-06 0. 
6.057e-05 -7.18508e-06 0. 
6.066e-05 -7.16951e-06 0. 
6.075e-05 -7.14455e-06 0. 
6.084e-05 -7.12992e-06 0. 
6.093e-05 -7.12218e-06 0. 
6.102e-05 -7.11705e-06 0. 
6.111e-05 -7.11723e-06 0. 
6.12e-05 -7.1124e-06 0. 
6.12095e-05 -7.11e-06 0. 
6.14573e-05 -7.11e-06 0. 
6.147e-05 -7.11136e-06 0. 
6.156e-05 -7.12038e-06 0. 
6.165e-05 -7.11721e-06 0. 
6.174e-05 -7.12363e-06 0. 
6.183e-05 -7.13424e-06 0. 
6.192e-05 -7.14273e-06 0. 
6.201e-05 -7.15231e-06 0. 
6.21e-05 -7.15873e-06 0. 
6.219e-05 -7.16791e-06 0. 
6.228e-05 -7.1786e-06 0. 
6.237e-05 -7.18632e-06 0. 
6.246e-05 -7.19131e-06 0. 
6.255e-05 -7.19219e-06 0. 
6.264e-05 -7.19286e-06 0. 
6.273e-05 -7.19224e-06 0. 
6.282e-05 -7.18981e-06 0. 
8.712e-05 -7.19504e-06 0. 
8.721e-05 -7.18678e-06 0. 
8.73e-05 -7.18513e-06 0. 
8.739e-05 -7.17776e-06 0. 
8.748e-05 -7.16427e-06 0. 
8.757e-05 -7.17186e-06 0. 
8.766e-05 -7.17111e-06 0. 
8.775e-05 -7.16336e-06 0. 
8.784e-05 -7.1536e-06 0. 
8.793e-05 -7.14924e-06 0. 
8.802e-05 -7.14571e-06 0. 
8.811e-05 -7.13864e-06 0. 
8.82e-05 -7.12889e-06 0. 
8.829e-05 -7.12363e-06 0. 
8.838e-05 -7.12268e-06 0. 
8.847e-05 -7.12109e-06 0. 
8.856e-05 -7.11827e-06 0. 
8.86146e-05 -7.11e-06 0. 
8.89679e-05 -7.11e-06 0. 
8.901e-05 -7.11304e-06 0. 
8.91e-05 -7.13464e-06 0. 
8.919e-05 -7.14703e-06 0. 
8.928e-05 -7.15485e-06 0. 
8.937e-05 -7.15709e-06 0. 
8.946e-05 -7.1539e-06 0. 
8.95039e-05 -7.11e-06 0. 
6.04515e-05 -7.02e-06 0. 
6.048e-05 -7.07493e-06 0. 
6.129e-05 -7.08965e-06 0. 
6.138e-05 -7.10172e-06 0. 
8.865e-05 -7.10465e-06 0. 
8.874e-05 -7.1063e-06 0. 
8.883e-05 -7.09321e-06 0. 
8.892e-05 -7.10655e-06 0. 
8.955e-05 -7.02659e-06 0. 
8.95536e-05 -7.02e-06 0. 
6.04437e-05 -6.93e-06 0. 
8.95637e-05 -6.93e-06 0. 
6.0444e-05 -6.84e-06 0. 
8.95633e-05 -6.84e-06 0. 
6.04409e-05 -6.75e-06 0. 
8.95647e-05 -6.75e-06 0. 
6.04397e-05 -6.66e-06 0. 
8.95633e-05 -6.66e-06 0. 
6.04448e-05 -6.57e-06 0. 
8.95712e-05 -6.57e-06 0. 
6.04479e-05 -6.48e-06 0. 
8.95583e-05 -6.48e-06 0. 
6.04425e-05 -6.39e-06 0. 
8.95671e-05 -6.39e-06 0. 
6.04415e-05 -6.3e-06 0. 
8.9566e-05 -6.3e-06 0. 
6.0448e-05 -6.21e-06 0. 
8.95635e-05 -6.21e-06 0. 
6.04412e-05 -6.12e-06 0. 
8.95686e-05 -6.12e-06 0. 
6.04408e-05 -6.03e-06 0. 
8.95587e-05 -6.03e-06 0. 
6.04297e-05 -5.94e-06 0. 
8.95704e-05 -5.94e-06 0. 
6.03981e-05 -5.85e-06 0. 
8.95738e-05 -5.85e-06 0. 
6.04483e-05 -5.76e-06 0. 
8.95656e-05 -5.76e-06 0. 
6.03944e-05 -5.67e-06 0. 
8.95688e-05 -5.67e-06 0. 
6.04192e-05 -5.58e-06 0. 
8.95733e-05 -5.58e-06 0. 
6.04149e-05 -5.49e-06 0. 
8.95607e-05 -5.49e-06 0. 
6.04343e-05 -5.4e-06 0. 
8.95826e-05 -5.4e-06 0. 
[...]
POINT_DATA 1905
SCALARS Coverage0 float 1
LOOKUP_TABLE default
0.35548
0.332076
0.315106
0.312819
0.301322
0.351825
0.316523
0.292427
0.337314
0.360483
0.349616
0.356076
0.35289
0.307581
0.316274
0.334064
0.352767
0.337267
0.332962
0.338862
0.370235
0.312335
0.321429
0.320712
0.357863
0.349419
0.327247
0.324941
0.35059
0.368766
0.357351
0.329448
0.304024
0.337269
0.338268
0.343135
0.359447
0.370354
0.383192
0.363321
0.320989
0.318995
0.343278
0.357458
0.34155
0.349469
0.325584
0.313035
0.326538
0.328313
0.348756
0.330001
0.322894
0.357766
0.374129
0.374324
0.361369
0.346244
0.356123
0.362903
0.335017
0.330371
0.351113
0.338977
0.333262
0.359567
0.351329
0.337207
0.324282
0.360629
0.356059
0.36281
0.340083
0.346692
0.371885
0.381704
0.343841
0.32336
0.342881
0.35248
0.358747
0.355207
0.330747
0.337777
0.358959
0.350316
0.363361
0.35714
0.32366
0.354129
0.334329
0.339066
0.37715
0.356286
0.325009
0.372591
0.360481
0.362781
0.365542
0.367961
0.320312
0.345618
0.336004
0.362389
0.348788
0.365207
0.350281
0.325165
0.351333
0.351156
0.32954
0.33922
0.347736
0.357315
0.353198
0.367445
0.354668
0.346353
0.35082
0.346682
0.346194
0.345237
0.352324
0.34098
0.34321
0.367533
0.317811
0.331005
0.333184
0.325302
0.335383
0.349926
0.36913
0.337209
0.352497
0.347337
0.358768
0.337923
0.353419
0.355675
0.341797
0.337173
0.340278
0.355202
0.359193
0.346797
0.349426
0.361056
0.351886
0.345336
0.319417
0.339401
0.323824
0.326301
0.330878
0.337875
0.324351
0.338098
0.349531
0.332369
0.344986
0.337792
0.344975
0.334629
0.355679
0.364342
0.358361
0.344627
0.353942
0.357852
0.346678
0.335741
0.338733
0.330232
0.33331
0.346838
0.320114
0.338666
0.360469
0.330447
0.332415
0.347088
0.323057
0.338576
0.320254
0.342499
0.358085
0.361209
0.36025
0.32151
0.349558
0.343883
0.341283
0.313489
0.338169
0.304843
0.309332
0.358823
0.348198
0.319449
0.31057
0.326184
0.365036
0.352546
0.339714
0.313541
0.301475
0.275788
0.311232
0.358478
0.346824
0.336796
0.332483
0.329997
0.320852
0.320852
0.316073
0.288318
0.286342
0.302248
0.2922
0.273802
0.294944
0.306169
0.298945
0.310247
0.334294
0.317862
0.290432
0.309008
0.322285
0.32113
0.303685
0.319265
0.335706
0.346534
0.349821
0.337332
0.318466
0.309196
0.298981
0.312431
0.35548
0.329997
0.310822
0.303326
0.319316
0.301955
0.325694
0.318279
0.313492
0.301958
0.329583
0.33984
0.318709
0.296747
0.32729
0.346983
0.33299
0.309716
0.300928
0.310621
0.296433
0.310312
0.306902
0.324605
0.293791
0.269078
0.280619
0.280916
0.301223
0.310815
0.310815
0.472102
0.312582
0.226718
0.247096
0.258758
0.242704
0.26817
0.255448
0.222955
0.222955
0.294081
0.294081
0.281741
0.291786
0.292592
0.294118
0.294103
0.256173
0.259255
0.293214
0.310534
0.28854
0.28694
0.28899
0.280015
0.289471
0.303087
0.290018
0.284456
0.314037
0.345661
0.347938
0.299558
0.294471
0.304813
0.295891
0.278806
0.29749
0.302339
0.290616
0.288068
0.299706
0.286482
0.25134
0.284091
0.260296
0.260296
0.271269
0.275118
0.260668
0.290157
0.357586
0.357586
0.686929
0.472102
0.242984
0.285193
0.284091
0.277805
0.272764
0.264471
0.726484
0.726484
0.964498
0.951548
0.977338
0.923486
0.925879
0.834211
0.993229
0.947046
1
0.999489
0.936866
0.999775
0.94354
0.979105
1
0.999914
0.995951
0.987301
0.9685
0.999464
0.964331
0.967295
0.875481
0.948468
1
0.999765
0.982845
0.999914
1
0.951829
1
1
0
0.932138
0
0.805716
0.818829
1
0.79021
1
0.839736
0.979602
1
0.839736
0.834543
1
1
0.752687
0
0
0.823827
0
0.861878
0
0
0.780808
0.780808
1
1
1
1
1
0.8528
0.838913
0.825231
0.8528
0
0
0.795115
0
0
1
1
0
0
1
0
0
1
1
0.721457
1
0.767236
0
0.84205
0.84205
0.997958
0.997958
1
0.8816
0.997958
1
0.874973
1
0
1
0.840913
1
1
0.805472
0.889092
0
0
0.73723
1
1
0.787083
0.787083
1
1
0
1
1
0
0
0
0
0.88542
0
0.781899
0.94894
0.781899
0.889191
0.959467
0
1
0.959467
0.971375
0.971375
0
1
0.971375
0.00586251
0.726764
0
0.832655
0
0.743088
0
0.986279
1
1
0.834261
0.834261
1
0
1
1
0.866266
1
1
0
0.975994
0.975994
0.807646
0.987805
0.975994
0.824427
0
0
0.987805
0.806603
0
0
0.806603
0.768479
0
0
0.847278
1
1
0
1
1
1
0.961114
0
0.747848
1
0.706199
0.706199
0.855641
0.909069
0.997229
0.706199
0.855641
1
0
0
1
1
0
1
0.876006
0.886819
0.831021
0.749565
0.831021
1
0.790003
0
0
1
1
0.790003
0.750829
1
0.850909
0.811236
0.750829
1
0.730221
0.730221
0.850909
0
0
1
0
0.718326
0.718326
0
0.963333
0.963333
1
1
0.682954
0.682954
0.5454
0.963333
0.963585
0.768433
0.682954
0.622776
0.963585
0.396244
0.396244
0.347489
0.367581
0.376278
0.370244
0.373593
0.346522
0.380744
0.373594
0.363262
0.356513
0.377407
0.38689
0.365716
0.347938
0.364807
0.364658
0.378584
0.368387
0.364032
0.353489
0.364404
0.376906
0.366469
0.348996
0.355706
0.365185
0.363181
0.362235
0.34174
0.379999
0.36511
0.368083
0.361034
0.365448
0.36827
0.368471
0.362272
0.368233
0.358056
0.359537
0.377214
0.375112
0.361714
0.365645
0.362092
0.361999
0.367318
0.372857
0.366465
0.367794
0.359039
0.360854
0.361372
0.373082
0.385973
0.364014
0.350674
0.384878
0.39262
0.34673
0.358472
0.365494
0.356178
0.353335
0.338895
0.376858
0.364586
0.369882
0.376716
0.369347
0.341992
0.367406
0.372059
0.377743
0.371163
0.342614
0.374472
0.364217
0.365855
0.355655
0.36701
0.361529
0.351954
0.380742
0.368721
0.369443
0.375808
0.363614
0.356992
0.378684
0.378225
0.3708
0.363495
0.336484
0.370649
0.356532
0.380682
0.366149
0.372708
0.360043
0.366934
0.383213
0.351769
0.356128
0.370031
0.367874
0.373956
0.369661
0.368794
0.369294
0.390039
0.371897
0.374654
0.368576
0.362325
0.358527
0.358096
0.361525
0.368843
0.370529
0.365907
0.356599
0.338339
0.38406
0.361264
0.36329
0.376206
0.374008
0.376004
0.360764
0.36935
0.368619
0.359113
0.365233
0.375976
0.37385
0.367724
0.340166
0.355181
0.373357
0.372523
0.382585
0.357754
0.365691
0.369764
0.350985
0.370184
0.374832
0.380187
0.352036
0.359272
0.379418
0.372013
0.367168
0.357022
0.371754
0.349866
0.374057
0.361558
0.361102
0.363333
0.360305
0.373929
0.35635
0.377474
0.369922
0.360317
0.37428
0.365104
0.382104
0.37301
0.372148
0.356234
0.339511
0.364281
0.360153
0.375204
0.36408
0.365446
0.379965
0.374483
0.351431
0.352287
0.357158
0.354033
0.372023
0.345151
0.357632
0.376239
0.381965
0.357973
0.363192
0.351059
0.377911
0.374958
0.37883
0.382125
0.361325
0.362251
0.368909
0.361017
0.371082
0.355321
0.364917
0.347379
0.361299
0.371368
0.368604
0.35863
0.349115
0.345783
0.354249
0.38051
0.368918
0.378408
0.365305
0.366751
0.370497
0.363873
0.360465
0.370385
0.367634
0.384346
0.342512
0.344931
0.366022
0.388826
0.359866
0.368803
0.362953
0.377969
0.362218
0.343311
0.351265
0.374751
0.371554
0.368177
0.366973
0.362078
0.348217
0.362719
0.372139
0.3843
0.365733
0.351639
0.357195
0.365527
0.374263
0.360062
0.362831
0.372594
0.351925
0.345281
0.370357
0.364698
0.370546
0.374377
0.363766
0.364524
0.365917
0.35957
0.36741
0.359588
0.381374
0.363239
0.359667
0.384682
0.373576
0.359383
0.343948
0.377588
0.38849
0.370536
0.349934
0.363313
0.362716
0.364709
0.357771
0.367694
0.363504
0.362222
0.360738
0.359127
0.366319
0.360336
0.374651
0.361681
0.36714
0.378089
0.356531
0.37013
0.377786
0.372147
0.358992
0.367523
0.386939
0.380072
0.380202
0.360101
0.356396
0.362657
0.371307
0.371194
0.369338
0.353547
0.359696
0.366064
0.357968
0.375265
0.360709
0.371548
0.378608
0.372739
0.35062
0.35881
0.368734
0.361864
0.39233
0.352923
0.354743
0.355421
0.366859
0.357704
0.359683
0.381835
0.374656
0.35924
0.374619
0.367153
0.356691
0.348522
0.363936
0.37748
0.369072
0.370653
0.380136
0.378269
0.370202
0.371157
0.372304
0.38239
0.373115
0.35084
0.356348
0.361386
0.367069
0.37823
0.37542
0.363436
0.369162
0.358699
0.36063
0.384012
0.398615
0.367616
0.361514
0.362272
0.369127
0.359852
0.36473
0.37629
0.3605
0.381945
0.375268
0.364569
0.376242
0.361257
0.349348
0.359279
0.358327
0.365059
0.370702
0.367432
0.361474
0.347204
0.374274
0.373331
0.36567
0.36027
0.362193
0.370281
0.378149
0.368493
0.35303
0.38115
0.369939
0.371816
0.389671
0.330005
0.364114
0.374294
0.360108
0.378704
0.355591
0.347142
0.390642
0.357837
0.356098
0.3719
0.364049
0.386689
0.367198
0.375906
0.354521
0.371322
0.362756
0.36773
0.365501
0.369004
0.363474
0.375609
0.356056
0.359303
0.370667
0.37161
0.355414
0.367869
0.381968
0.357618
0.371164
0.362038
0.360624
0.360092
0.363524
0.373165
0.367376
0.366778
0.364064
0.369975
0.368135
0.377419
0.361013
0.367228
0.37542
0.359751
0.363
0.37777
0.373807
0.374441
0.366959
0.35328
0.357855
0.36645
0.365656
0.391507
0.380525
0.385711
0.366086
0.378524
0.361989
0.355014
0.369367
0.376712
0.364028
0.362763
0.372165
0.370713
0.361383
0.378415
0.3778
0.374827
0.37344
0.350335
0.353124
0.375191
0.377924
0.386122
0.339511
0.374264
0.353542
0.364142
0.363801
0.386555
0.363463
0.35678
0.367751
0.357022
0.362919
0.361316
0.362293
0.360182
0.369973
0.371939
0.358642
0.358607
0.36338
0.381429
0.35782
0.355035
0.367129
0.360225
0.366657
0.365094
0.370563
0.36518
0.371355
0.364004
0.340292
0.379955
0.369589
0.371995
0.376705
0.365679
0.348856
0.362096
0.366507
0.361526
0.384796
0.38195
0.356168
0.36309
0.356312
0.396067
0.371174
0.359235
0.388459
0.363114
0.365434
0.347773
0.361411
0.36181
0.363801
0.369102
0.375944
0.369038
0.351741
0.366538
0.359672
0.372019
0.367371
0.352402
0.35393
0.369142
0.361849
0.377646
0.351791
0.370765
0.368536
0.367665
0.360414
0.364251
0.361873
0.363451
0.366341
0.361437
0.368256
0.373536
0.380804
0.369883
0.364124
0.35097
0.356218
0.375492
0.363103
0.379412
0.37846
0.385012
0.374917
0.35676
0.359907
0.35488
0.359775
0.370632
0.370551
0.35959
0.360895
0.367826
0.354739
0.365895
0.378325
0.37193
0.369163
0.356342
0.362053
0.366631
0.374094
0.369385
0.392483
0.363453
0.375466
0.379837
0.342745
0.359863
0.362168
0.391809
0.369628
0.364406
0.352881
0.342586
0.364818
0.367637
0.361641
0.365351
0.352726
0.36524
0.368286
0.35724
0.371074
0.37453
0.363613
0.370607
0.377308
0.358069
0.356225
0.366114
0.367311
0.375281
0.353694
0.34595
0.358535
0.372531
0.378052
0.371795
0.366228
0.348356
0.362274
0.388577
0.368061
0.368466
0.35876
0.365974
0.3704
0.355098
0.3645
0.366755
0.37771
0.369282
0.372284
0.351885
0.367624
0.36238
0.385474
0.371041
0.363007
0.366305
0.36
0.37233
0.360628
0.371141
0.369028
0.368031
0.362855
0.368438
0.334067
0.374481
0.369588
0.37302
0.355505
0.359869
0.332859
0.369374
0.375865
0.369338
0.382226
0.390079
0.358101
0.358304
0.367646
0.364936
0.390498
0.364788
0.346182
0.367655
0.3696
0.372191
0.380772
0.390927
0.394181
0.355457
0.368883
0.386112
0.371282
0.35005
0.366537
0.360386
0.373755
0.368504
0.366181
0.371052
0.34947
0.374191
0.3696
0.358963
0.359687
0.363512
0.358897
0.347637
0.358104
0.380103
0.379486
0.361691
0.363208
0.366432
0.359196
0.364008
0.387478
0.358586
0.355699
0.351841
0.381092
0.362338
0.357057
0.371406
0.376343
0.367825
0.383095
0.368522
0.374001
0.376643
0.366894
0.375552
0.360961
0.346817
0.364949
0.381169
0.372247
0.372002
0.371388
0.348143
0.365162
0.367522
0.374708
0.377617
0.372604
0.362324
0.354055
0.363598
0.357074
0.354301
0.348743
0.372247
0.373035
0.379566
0.360781
0.375256
0.375754
0.357612
0.337447
0.367089
0.36796
0.357237
0.365895
0.385982
0.366392
0.362111
0.365539
0.35548
0.360711
0.373876
0.365055
0.377994
0.365225
0.37032
0.374295
0.359668
0.358723
0.347196
0.359289
0.371361
0.366866
0.351944
0.356166
0.374909
0.350414
0.37712
0.384748
0.353887
0.350164
0.377997
0.379338
0.361989
0.349866
0.353661
0.364107
0.35708
0.371897
0.38683
0.356054
0.336497
0.356188
0.379302
0.375834
0.371417
0.352836
0.366026
0.368582
0.372717
0.372807
0.372722
0.373117
0.372518
0.364951
0.361364
0.387153
0.365115
0.362876
0.364664
0.360016
0.372445
0.383103
0.369912
0.362217
0.356716
0.384934
0.37354
0.374043
0.363629
0.354335
0.358128
0.379221
0.366292
0.356244
0.344244
0.361287
0.379588
0.368457
0.368421
0.384607
0.380049
0.375275
0.360669
0.356499
0.360087
0.349946
0.364319
0.361338
0.365848
0.366195
0.372726
0.32784
0.368226
0.370051
0.372509
0.377825
0.367358
0.375886
0.373236
0.364038
0.36778
0.350604
0.360125
0.377282
0.370803
0.383458
0.371299
0.362571
0.36659
0.358278
0.360814
0.362009
0.364134
0.368854
0.385661
0.364525
0.360779
0.38071
0.369834
0.378929
0.358488
0.353336
0.375554
0.358716
0.344719
0.367171
0.370996
0.363112
0.363451
0.353157
0.365416
0.365794
0.368754
0.357769
0.357573
0.376818
0.371084
0.365652
0.358486
0.36842
0.374191
0.362029
0.358311
0.371082
0.3645
0.386098
0.386857
0.35839
0.339125
0.362609
0.359095
0.365665
0.371647
0.364926
0.347791
0.366665
0.372536
0.380976
0.378432
0.373533
0.36628
0.36487
0.370543
0.376956
0.358244
0.352645
0.368666
0.369072
0.391588
0.369086
0.366292
0.366982
0.349924
0.366534
0.383958
0.361563
0.344941
0.369141
0.370989
0.360164
0.37957
0.351841
0.357312
0.378641
0.393648
0.384483
0.368535
0.34784
0.361049
0.378985
0.359364
0.349506
0.364157
0.377732
0.36807
0.352871
0.351311
0.368693
0.358155
0.381261
0.357137
0.353166
0.364009
0.368629
0.377787
0.350459
0.38425
0.35456
0.368009
0.372606
0.356833
0.368561
0.362714
0.365849
0.380421
0.354659
0.375238
0.372924
0.352787
0.354452
0.357707
0.379845
0.368531
0.371123
0.368959
0.365179
0.375596
0.376271
0.365737
0.35569
0.363221
0.367893
0.356733
0.350803
0.364995
0.353995
0.369765
0.37959
0.360489
0.360446
0.362082
0.384419
0.350789
0.355964
0.374174
0.371664
0.373869
0.36557
0.352693
0.355435
0.351103
0.349435
0.38719
0.38612
0.382168
0.353622
0.351172
0.362715
0.353836
0.362429
0.362015
0.359961
0.385775
0.370486
0.359992
0.376526
0.38341
0.369315
0.364189
0.363487
0.367951
0.362175
0.366699
0.371712
0.361465
0.372705
0.361276
0.369998
0.347203
0.36006
0.388715
0.371119
0.372833
0.35519
0.369851
0.368958
0.373621
0.364787
0.36359
0.371672
0.362464
0.359166
0.349269
0.347898
0.356169
0.386924
0.39221
0.375389
0.376702
0.356931
0.355273
0.36255
0.371737
0.349123
0.357289
0.346444
0.362403
0.371298
0.375372
0.364713
0.359937
0.369002
0.364465
0.36763
0.3792
0.362378
0.36824
0.357527
0.371483
0.363169
0.371656
0.360929
0.369099
0.34669
0.366649
0.369566
0.363622
0.366264
0.365242
0.353621
0.359121
0.356441
0.377059
0.371395
0.362345
0.376686
0.372764
0.365099
0.351236
0.377925
0.373006
0.358184
0.371817
0.391388
0.364143
0.365054
0.363975
0.354315
0.365514
0.366665
0.363915
0.370637
0.389612
0.373313
0.344032
0.374973
0.357016
0.351686
0.371968
0.387206
0.37331
0.365688
0.366987
0.349208
0.364421
0.357299
0.35434
0.382353
0.379602
0.388089
0.38448
0.371853
0.361392
0.357808
0.364691
0.368418
0.355919
0.370572
0.358589
0.380728
0.375455
0.360675
0.358847
0.373573
0.360058
0.361582
0.376021
0.358851
0.362237
0.384693
0.376626
0.371187
0.366444
0.361137
0.355043
0.365638
0.360477
0.361248
0.36753
0.367487
0.382772
0.368863
0.361056
0.360747
0.373267
0.368101
0.343928
0.368437
0.366742
0.377975
0.353584
0.366314
0.396971
0.374184
0.355734
0.363397
0.372744
0.36502
0.367583
0.363022
0.374199
0.361502
0.352221
0.365112
0.375782
0.386311
0.365011
0.366116
0.350834
0.350007
0.362684
0.365233
0.351019
0.351439
0.352022
0.363441
0.38595
0.375224
0.374839
0.37512
0.375525
0.361601
0.356137
0.369072
0.341345
0.364195
0.353722
0.355258
0.370276
0.364415
0.365396
0.388632
0.378455
0.379673
0.366733
0.363975
0.364226
0.355722
0.358381
0.370506
0.370602
0.372338
0.349896
0.352449
0.36924
0.372417
0.370014
0.368303
0.36765
0.369295
0.361781
0.366981
0.379585
0.354979
0.350365
0.366874
0.355628
0.374396
0.393014
0.375619
0.364439
0.370034
0.378605
0.359439
0.35598
0.362296
0.368078
0.371554
0.354156
0.363178
0.369011
0.375894
0.356269
0.368832
0.373154
0.361063
0.339592
0.364885
0.359138
0.366735
0.352697
0.348809
0.382676
0.363008
0.376675
0.362728
0.372102
0.384975
0.35399
0.363617
0.371298
0.367957
0.367698
0.350423
0.354582
0.358039
0.35556
0.372799
0.389072
0.372194
0.36849
0.337696
0.367527
0.367586
0.344293
0.374491
0.372904
0.376868
0.365137
0.361634
0.362124
0.368166
0.37793
0.371008
0.359444
0.351001
0.370505
0.358704
0.366325
0.366408
0.378869
0.350872
0.359111
0.373254
0.369833
0.380177
0.373717
0.373981
0.362164
0.358356
0.367573
0.361304
0.374536
0.373967
0.367039
0.372128
0.378793
0.377677
0.354812
0.370793
0.360097
0.371707
0.370535
0.374543
0.37878
0.338801
0.346029
0.372228
0.38212
0.361557
0.382406
0.362442
0.373463
0.360527
0.36655
0.372065
0.366644
0.370933
0.371495
0.355677
0.357991
0.369054
0.387101
0.368652
0.380674
0.368616
0.357487
0.369698
0.35807
0.395368
0.354363
0.344375
0.380274
0.382896
0.347489
SCALARS Coverage1 float 1
LOOKUP_TABLE default
0.184682
0.194803
0.193232
0.208049
0.206931
0.178117
0.201567
0.190736
0.170738
0.18959
0.182135
0.175564
0.164439
0.177545
0.200877
0.191235
0.188259
0.218501
0.182264
0.169503
0.179186
0.20203
0.188759
0.173014
0.19881
0.181266
0.182456
0.197463
0.205769
0.204577
0.174202
0.161401
0.196087
0.181038
0.178009
0.190997
0.18399
0.171411
0.180704
0.178146
0.193498
0.201445
0.224852
0.204952
0.202585
0.183244
0.17378
0.211339
0.188468
0.17025
0.180013
0.188953
0.213301
0.209753
0.215606
0.198987
0.172833
0.183362
0.189941
0.179903
0.169906
0.173671
0.201419
0.199514
0.200713
0.196862
0.18431
0.176825
0.182997
0.199905
0.203482
0.187842
0.185165
0.199852
0.209871
0.204947
0.18942
0.189383
0.182568
0.200358
0.216933
0.207483
0.1914
0.179161
0.185945
0.181146
0.179156
0.194804
0.179709
0.207066
0.201752
0.191681
0.196553
0.210865
0.19964
0.189424
0.197721
0.181202
0.179946
0.20412
0.21085
0.194334
0.191581
0.213361
0.206109
0.1747
0.181836
0.18095
0.175122
0.195964
0.206597
0.19547
0.198404
0.196794
0.205902
0.193829
0.179615
0.183173
0.165007
0.178636
0.189709
0.195745
0.209626
0.208642
0.17921
0.192548
0.194646
0.208361
0.199746
0.202924
0.190896
0.17667
0.188603
0.188001
0.192679
0.199125
0.197089
0.19583
0.198215
0.190137
0.184676
0.170564
0.17776
0.182312
0.19266
0.193728
0.185083
0.19101
0.196655
0.188018
0.206507
0.194677
0.193331
0.194796
0.181211
0.188609
0.196516
0.186401
0.182933
0.185138
0.19175
0.203165
0.18858
0.20101
0.208095
0.175275
0.185897
0.189413
0.188322
0.195772
0.194469
0.183765
0.185488
0.196409
0.19784
0.207344
0.201376
0.207245
0.187754
0.194895
0.19706
0.207875
0.194455
0.176171
0.17156
0.176421
0.192568
0.165995
0.182941
0.193441
0.187579
0.187777
0.192933
0.209163
0.202947
0.213239
0.199626
0.185997
0.189862
0.180123
0.196227
0.180393
0.182143
0.173617
0.182214
0.206722
0.207156
0.228712
0.1794
0.17441
0.192862
0.180952
0.191842
0.221719
0.171441
0.171441
0.187708
0.176974
0.183997
0.201476
0.217695
0.200647
0.185932
0.185158
0.199116
0.211798
0.169289
0.187126
0.189449
0.17686
0.164574
0.164462
0.189745
0.17983
0.169532
0.177705
0.196919
0.2041
0.193355
0.18195
0.194464
0.183497
0.184682
0.221719
0.221148
0.198346
0.192327
0.212368
0.19726
0.19954
0.177626
0.187411
0.214118
0.189684
0.193367
0.200628
0.192344
0.19172
0.189851
0.197752
0.202422
0.198355
0.196031
0.182082
0.186566
0.175111
0.165912
0.181508
0.191174
0.197076
0.18759
0.172109
0.172109
0.215652
0.193561
0.177318
0.177039
0.186017
0.201643
0.188503
0.175362
0.20072
0.20072
0.165769
0.165769
0.179901
0.177855
0.167348
0.176374
0.181543
0.219273
0.203016
0.185287
0.185427
0.160371
0.182115
0.192805
0.189731
0.192754
0.187714
0.183987
0.196879
0.180375
0.170467
0.183892
0.191298
0.218886
0.204294
0.199585
0.18893
0.183428
0.186621
0.171936
0.158603
0.180681
0.182184
0.186666
0.187422
0.156296
0.156296
0.157584
0.161363
0.175223
0.186201
0.188511
0.188511
0.315302
0.215652
0.180162
0.187101
0.187422
0.171381
0.213103
0.188254
0.29747
0.29747
0.103442
0.177639
0.0586824
0
0.0435846
0
0
31.2075
1
6037.03
0.0773342
0.0612661
0.0662474
0.184447
1
2422.64
0
39.0956
31.3136
392.474
0
25.8728
0.0766498
0.0669528
1
0
37.1147
0.342956
1
0.046561
0
0
1
0
1
0
32.3002
0
2.15976
0
0
0
1
0
0.0523096
0
0
0.502617
1
1
0
1
0
1
1
0.0879905
0.0879905
0
0
1
1
1
9.23411
0
0.0733265
9.23411
1
1
2.31683
0
0
1
1
0
0
1
1
0
1
1
0
0
0.0965202
0
2.8095
2.8095
0
0
0
7.55618
0
1
0
1
1
1
0.0590883
1
1
0
0.0437983
1
1
0.0629382
1
1
0.076624
0.076624
1
1
1
1
0
0
0
1
0
0
0
2.66945
0.170625
2.66945
1.51184
0.149347
0
1
0.149347
0.0723469
0.0723469
1
0
0.0723469
0
0.07106
0
2.20611
0
0
0
0.0492067
0
0
0
0
0
0
1
1
0
1
0
0
0.00459784
0.00459784
0
27.9846
0.00459784
0
0
0
27.9846
2.45832
0
0
2.45832