# vtk DataFile Version 2.0
2D Surface
ASCII
DATASET UNSTRUCTURED_GRID
POINTS 3471 float
7.13614e-05 -4.932e-05 0. 
7.137e-05 -4.93205e-05 0. 
7.14512e-05 -4.932e-05 0. 
7.21212e-05 -4.932e-05 0. 
7.218e-05 -4.93249e-05 0. 
7.227e-05 -4.93245e-05 0. 
7.236e-05 -4.93234e-05 0. 
7.245e-05 -4.9322e-05 0. 
7.254e-05 -4.93219e-05 0. 
7.263e-05 -4.93264e-05 0. 
7.272e-05 -4.93247e-05 0. 
7.27976e-05 -4.932e-05 0. 
7.28232e-05 -4.932e-05 0. 
7.29e-05 -4.93244e-05 0. 
7.299e-05 -4.9329e-05 0. 
7.308e-05 -4.93265e-05 0. 
7.317e-05 -4.93356e-05 0. 
7.326e-05 -4.93368e-05 0. 
7.335e-05 -4.93352e-05 0. 
7.344e-05 -4.93396e-05 0. 
7.353e-05 -4.93406e-05 0. 
7.362e-05 -4.9343e-05 0. 
7.371e-05 -4.93394e-05 0. 
7.38e-05 -4.93383e-05 0. 
7.389e-05 -4.93244e-05 0. 
7.39739e-05 -4.932e-05 0. 
7.43308e-05 -4.932e-05 0. 
7.434e-05 -4.93204e-05 0. 
7.43666e-05 -4.932e-05 0. 
7.44443e-05 -4.932e-05 0. 
7.452e-05 -4.93251e-05 0. 
7.461e-05 -4.93238e-05 0. 
7.47e-05 -4.9324e-05 0. 
7.47609e-05 -4.932e-05 0. 
7.4809e-05 -4.932e-05 0. 
7.488e-05 -4.93272e-05 0. 
7.497e-05 -4.93302e-05 0. 
7.506e-05 -4.93292e-05 0. 
7.515e-05 -4.93231e-05 0. 
7.524e-05 -4.93301e-05 0. 
7.533e-05 -4.93303e-05 0. 
7.542e-05 -4.93344e-05 0. 
7.551e-05 -4.93374e-05 0. 
7.56e-05 -4.93391e-05 0. 
7.569e-05 -4.93435e-05 0. 
7.578e-05 -4.93394e-05 0. 
7.587e-05 -4.93406e-05 0. 
7.596e-05 -4.93369e-05 0. 
7.605e-05 -4.93361e-05 0. 
7.614e-05 -4.93309e-05 0. 
7.62293e-05 -4.932e-05 0. 
7.77558e-05 -4.932e-05 0. 
7.776e-05 -4.93203e-05 0. 
7.785e-05 -4.93245e-05 0. 
7.78972e-05 -4.932e-05 0. 
7.80177e-05 -4.932e-05 0. 
7.803e-05 -4.93206e-05 0. 
7.8052e-05 -4.932e-05 0. 
7.82088e-05 -4.932e-05 0. 
7.821e-05 -4.932e-05 0. 
7.82126e-05 -4.932e-05 0. 
6.89841e-05 -4.923e-05 0. 
6.903e-05 -4.92345e-05 0. 
6.912e-05 -4.92397e-05 0. 
6.921e-05 -4.92423e-05 0. 
6.93e-05 -4.92378e-05 0. 
6.939e-05 -4.92467e-05 0. 
6.948e-05 -4.92529e-05 0. 
6.957e-05 -4.92615e-05 0. 
6.966e-05 -4.92652e-05 0. 
6.975e-05 -4.92669e-05 0. 
6.984e-05 -4.9277e-05 0. 
6.993e-05 -4.92794e-05 0. 
7.002e-05 -4.92879e-05 0. 
7.011e-05 -4.9293e-05 0. 
7.02e-05 -4.92981e-05 0. 
7.029e-05 -4.93032e-05 0. 
7.038e-05 -4.93045e-05 0. 
7.047e-05 -4.93016e-05 0. 
7.056e-05 -4.92964e-05 0. 
7.065e-05 -4.92976e-05 0. 
7.074e-05 -4.93005e-05 0. 
7.083e-05 -4.93017e-05 0. 
7.092e-05 -4.93123e-05 0. 
7.101e-05 -4.93106e-05 0. 
7.11e-05 -4.93072e-05 0. 
7.119e-05 -4.9302e-05 0. 
7.128e-05 -4.93149e-05 0. 
7.146e-05 -4.93199e-05 0. 
7.155e-05 -4.93173e-05 0. 
7.164e-05 -4.93105e-05 0. 
7.173e-05 -4.9307e-05 0. 
7.182e-05 -4.93078e-05 0. 
7.191e-05 -4.93061e-05 0. 
7.2e-05 -4.93159e-05 0. 
7.209e-05 -4.93174e-05 0. 
7.281e-05 -4.93193e-05 0. 
7.398e-05 -4.93197e-05 0. 
7.407e-05 -4.9319e-05 0. 
7.416e-05 -4.93116e-05 0. 
7.425e-05 -4.93164e-05 0. 
7.443e-05 -4.9319e-05 0. 
7.479e-05 -4.93181e-05 0. 
7.623e-05 -4.93199e-05 0. 
7.632e-05 -4.93191e-05 0. 
7.641e-05 -4.93163e-05 0. 
7.65e-05 -4.93091e-05 0. 
7.659e-05 -4.93141e-05 0. 
7.668e-05 -4.93154e-05 0. 
7.677e-05 -4.9315e-05 0. 
7.686e-05 -4.93127e-05 0. 
7.695e-05 -4.93102e-05 0. 
7.704e-05 -4.93171e-05 0. 
7.713e-05 -4.93145e-05 0. 
7.722e-05 -4.9313e-05 0. 
7.731e-05 -4.93152e-05 0. 
7.74e-05 -4.93155e-05 0. 
7.749e-05 -4.93191e-05 0. 
7.758e-05 -4.93186e-05 0. 
7.767e-05 -4.93138e-05 0. 
7.794e-05 -4.9316e-05 0. 
7.812e-05 -4.9318e-05 0. 
7.83e-05 -4.93191e-05 0. 
7.839e-05 -4.9315e-05 0. 
7.848e-05 -4.93103e-05 0. 
7.857e-05 -4.93071e-05 0. 
7.866e-05 -4.93077e-05 0. 
7.875e-05 -4.92975e-05 0. 
7.884e-05 -4.92867e-05 0. 
7.893e-05 -4.92775e-05 0. 
7.902e-05 -4.92715e-05 0. 
7.911e-05 -4.92714e-05 0. 
7.92e-05 -4.92613e-05 0. 
7.929e-05 -4.92621e-05 0. 
7.938e-05 -4.92655e-05 0. 
7.947e-05 -4.92643e-05 0. 
7.956e-05 -4.92676e-05 0. 
7.965e-05 -4.92626e-05 0. 
7.974e-05 -4.9257e-05 0. 
7.983e-05 -4.92519e-05 0. 
7.992e-05 -4.92539e-05 0. 
8.001e-05 -4.92527e-05 0. 
8.01e-05 -4.92585e-05 0. 
8.019e-05 -4.92557e-05 0. 
8.028e-05 -4.9256e-05 0. 
8.037e-05 -4.9251e-05 0. 
8.046e-05 -4.92492e-05 0. 
8.055e-05 -4.9248e-05 0. 
8.064e-05 -4.9244e-05 0. 
8.073e-05 -4.9241e-05 0. 
8.082e-05 -4.9235e-05 0. 
8.091e-05 -4.9236e-05 0. 
8.1e-05 -4.92371e-05 0. 
8.109e-05 -4.924e-05 0. 
8.118e-05 -4.92333e-05 0. 
8.127e-05 -4.92328e-05 0. 
8.12974e-05 -4.923e-05 0. 
6.69425e-05 -4.914e-05 0. 
6.696e-05 -4.9141e-05 0. 
6.705e-05 -4.915e-05 0. 
6.714e-05 -4.91611e-05 0. 
6.723e-05 -4.91638e-05 0. 
6.732e-05 -4.91642e-05 0. 
6.741e-05 -4.91668e-05 0. 
6.75e-05 -4.91725e-05 0. 
6.759e-05 -4.91788e-05 0. 
6.768e-05 -4.91774e-05 0. 
6.777e-05 -4.91787e-05 0. 
6.786e-05 -4.91859e-05 0. 
6.795e-05 -4.91953e-05 0. 
6.804e-05 -4.92011e-05 0. 
6.813e-05 -4.92059e-05 0. 
6.822e-05 -4.9207e-05 0. 
6.831e-05 -4.92089e-05 0. 
6.84e-05 -4.92164e-05 0. 
6.849e-05 -4.92214e-05 0. 
6.858e-05 -4.9227e-05 0. 
6.867e-05 -4.92245e-05 0. 
6.876e-05 -4.92244e-05 0. 
6.885e-05 -4.92265e-05 0. 
6.894e-05 -4.92256e-05 0. 
8.136e-05 -4.92235e-05 0. 
8.145e-05 -4.92188e-05 0. 
8.154e-05 -4.92159e-05 0. 
8.163e-05 -4.92163e-05 0. 
8.172e-05 -4.92188e-05 0. 
8.181e-05 -4.92202e-05 0. 
8.19e-05 -4.92164e-05 0. 
8.199e-05 -4.92186e-05 0. 
8.208e-05 -4.92182e-05 0. 
8.217e-05 -4.92216e-05 0. 
8.226e-05 -4.92171e-05 0. 
8.235e-05 -4.92074e-05 0. 
8.244e-05 -4.91989e-05 0. 
8.253e-05 -4.91956e-05 0. 
8.262e-05 -4.91932e-05 0. 
8.271e-05 -4.91883e-05 0. 
8.28e-05 -4.91804e-05 0. 
8.289e-05 -4.91774e-05 0. 
8.298e-05 -4.91775e-05 0. 
8.307e-05 -4.91808e-05 0. 
8.316e-05 -4.91795e-05 0. 
8.325e-05 -4.91796e-05 0. 
8.334e-05 -4.91752e-05 0. 
8.343e-05 -4.91691e-05 0. 
8.352e-05 -4.91662e-05 0. 
8.361e-05 -4.91603e-05 0. 
8.37e-05 -4.91491e-05 0. 
8.379e-05 -4.91439e-05 0. 
8.388e-05 -4.91448e-05 0. 
8.39577e-05 -4.914e-05 0. 
6.53901e-05 -4.905e-05 0. 
6.543e-05 -4.90548e-05 0. 
6.552e-05 -4.90608e-05 0. 
6.561e-05 -4.90647e-05 0. 
6.57e-05 -4.90752e-05 0. 
6.579e-05 -4.90854e-05 0. 
6.588e-05 -4.90877e-05 0. 
6.597e-05 -4.90926e-05 0. 
6.606e-05 -4.9104e-05 0. 
6.615e-05 -4.91084e-05 0. 
6.624e-05 -4.91108e-05 0. 
6.633e-05 -4.91156e-05 0. 
6.642e-05 -4.91165e-05 0. 
6.651e-05 -4.91162e-05 0. 
6.66e-05 -4.9111e-05 0. 
6.669e-05 -4.91274e-05 0. 
6.678e-05 -4.91294e-05 0. 
6.687e-05 -4.91358e-05 0. 
8.397e-05 -4.91392e-05 0. 
8.406e-05 -4.91276e-05 0. 
8.415e-05 -4.91149e-05 0. 
8.424e-05 -4.911e-05 0. 
8.433e-05 -4.90994e-05 0. 
8.442e-05 -4.90858e-05 0. 
8.451e-05 -4.90828e-05 0. 
8.46e-05 -4.90828e-05 0. 
8.469e-05 -4.90762e-05 0. 
8.478e-05 -4.90669e-05 0. 
8.487e-05 -4.90626e-05 0. 
8.496e-05 -4.90508e-05 0. 
8.49715e-05 -4.905e-05 0. 
6.41828e-05 -4.896e-05 0. 
6.426e-05 -4.89672e-05 0. 
6.435e-05 -4.89755e-05 0. 
6.444e-05 -4.89856e-05 0. 
6.453e-05 -4.89924e-05 0. 
6.462e-05 -4.90017e-05 0. 
6.471e-05 -4.90089e-05 0. 
6.48e-05 -4.90114e-05 0. 
6.489e-05 -4.90102e-05 0. 
6.498e-05 -4.90241e-05 0. 
6.507e-05 -4.90332e-05 0. 
6.516e-05 -4.90414e-05 0. 
6.525e-05 -4.90467e-05 0. 
6.534e-05 -4.9044e-05 0. 
8.505e-05 -4.90447e-05 0. 
8.514e-05 -4.90397e-05 0. 
8.523e-05 -4.90267e-05 0. 
8.532e-05 -4.90211e-05 0. 
8.541e-05 -4.90244e-05 0. 
8.55e-05 -4.90209e-05 0. 
8.559e-05 -4.90171e-05 0. 
8.568e-05 -4.90121e-05 0. 
8.577e-05 -4.90029e-05 0. 
8.586e-05 -4.89867e-05 0. 
8.595e-05 -4.89854e-05 0. 
8.604e-05 -4.89815e-05 0. 
8.613e-05 -4.89722e-05 0. 
8.622e-05 -4.8964e-05 0. 
8.631e-05 -4.89615e-05 0. 
8.635e-05 -4.896e-05 0. 
6.31815e-05 -4.887e-05 0. 
6.327e-05 -4.88769e-05 0. 
6.336e-05 -4.88863e-05 0. 
6.345e-05 -4.89022e-05 0. 
6.354e-05 -4.89152e-05 0. 
6.363e-05 -4.89223e-05 0. 
6.372e-05 -4.89273e-05 0. 
6.381e-05 -4.89298e-05 0. 
6.39e-05 -4.89399e-05 0. 
6.399e-05 -4.89466e-05 0. 
6.408e-05 -4.89514e-05 0. 
6.417e-05 -4.89588e-05 0. 
8.64e-05 -4.89581e-05 0. 
8.649e-05 -4.8948e-05 0. 
8.658e-05 -4.89374e-05 0. 
8.667e-05 -4.89242e-05 0. 
8.676e-05 -4.89109e-05 0. 
8.685e-05 -4.88979e-05 0. 
8.694e-05 -4.88809e-05 0. 
8.69987e-05 -4.887e-05 0. 
6.26024e-05 -4.878e-05 0. 
6.264e-05 -4.87908e-05 0. 
6.273e-05 -4.88102e-05 0. 
6.282e-05 -4.88242e-05 0. 
6.291e-05 -4.88358e-05 0. 
6.3e-05 -4.88472e-05 0. 
6.309e-05 -4.88576e-05 0. 
6.318e-05 -4.88699e-05 0. 
8.703e-05 -4.88642e-05 0. 
8.712e-05 -4.885e-05 0. 
8.721e-05 -4.88318e-05 0. 
8.73e-05 -4.88154e-05 0. 
8.739e-05 -4.87946e-05 0. 
8.74641e-05 -4.878e-05 0. 
6.22712e-05 -4.869e-05 0. 
6.228e-05 -4.86936e-05 0. 
6.237e-05 -4.8717e-05 0. 
6.246e-05 -4.87448e-05 0. 
6.255e-05 -4.8765e-05 0. 
8.748e-05 -4.87769e-05 0. 
8.757e-05 -4.87482e-05 0. 
8.766e-05 -4.87311e-05 0. 
8.77478e-05 -4.869e-05 0. 
6.20731e-05 -4.86e-05 0. 
6.21e-05 -4.86269e-05 0. 
6.219e-05 -4.86568e-05 0. 
8.775e-05 -4.8689e-05 0. 
8.784e-05 -4.86659e-05 0. 
8.79101e-05 -4.86e-05 0. 
6.19957e-05 -4.851e-05 0. 
6.201e-05 -4.85266e-05 0. 
8.793e-05 -4.85781e-05 0. 
8.79883e-05 -4.851e-05 0. 
6.19662e-05 -4.842e-05 0. 
8.801e-05 -4.842e-05 0. 
6.19647e-05 -4.833e-05 0. 
8.80151e-05 -4.833e-05 0. 
6.19661e-05 -4.824e-05 0. 
8.8015e-05 -4.824e-05 0. 
6.19643e-05 -4.815e-05 0. 
8.80161e-05 -4.815e-05 0. 
6.19641e-05 -4.806e-05 0. 
8.80171e-05 -4.806e-05 0. 
6.19644e-05 -4.797e-05 0. 
8.80174e-05 -4.797e-05 0. 
6.19645e-05 -4.788e-05 0. 
8.802e-05 -4.788e-05 0. 
6.19627e-05 -4.779e-05 0. 
8.80197e-05 -4.779e-05 0. 
6.19637e-05 -4.77e-05 0. 
8.802e-05 -4.77424e-05 0. 
8.80203e-05 -4.77e-05 0. 
6.19657e-05 -4.761e-05 0. 
8.80215e-05 -4.761e-05 0. 
6.19626e-05 -4.752e-05 0. 
8.80267e-05 -4.752e-05 0. 
6.19622e-05 -4.743e-05 0. 
8.80278e-05 -4.743e-05 0. 
6.1963e-05 -4.734e-05 0. 
8.80276e-05 -4.734e-05 0. 
6.19625e-05 -4.725e-05 0. 
8.80291e-05 -4.725e-05 0. 
6.19617e-05 -4.716e-05 0. 
8.80286e-05 -4.716e-05 0. 
6.19601e-05 -4.707e-05 0. 
8.80322e-05 -4.707e-05 0. 
6.19575e-05 -4.698e-05 0. 
8.80371e-05 -4.698e-05 0. 
6.19564e-05 -4.689e-05 0. 
8.80343e-05 -4.689e-05 0. 
6.1959e-05 -4.68e-05 0. 
8.80334e-05 -4.68e-05 0. 
6.196e-05 -4.671e-05 0. 
8.8039e-05 -4.671e-05 0. 
6.19557e-05 -4.662e-05 0. 
8.80406e-05 -4.662e-05 0. 
6.19562e-05 -4.653e-05 0. 
8.80402e-05 -4.653e-05 0. 
[...]
POINT_DATA 3471
SCALARS Coverage0 float 1
LOOKUP_TABLE default
0.176362
0.176362
0.186826
0.190437
0.190325
0.183025
0.182316
0.204636
0.2187
0.204544
0.184452
0.147657
0.147657
0.153667
0.172544
0.16471
0.175281
0.183665
0.184439
0.186668
0.202156
0.189953
0.204887
0.174904
0.183006
0.184426
0.193908
0.193908
0.193908
0.183202
0.162626
0.162576
0.151665
0.158501
0.158501
0.163463
0.179355
0.185872
0.18963
0.198371
0.199705
0.178222
0.169488
0.180215
0.204334
0.178461
0.187408
0.170488
0.16025
0.154492
0.172192
0.199798
0.199798
0.181772
0.188966
0.165551
0.165551
0.165551
0.161252
0.161252
0.161252
0.172909
0.178076
0.18997
0.16343
0.179493
0.189315
0.15398
0.173612
0.16566
0.170041
0.193256
0.199302
0.193044
0.194896
0.182239
0.191281
0.192208
0.177396
0.178159
0.163885
0.177646
0.171091
0.165841
0.159988
0.180612
0.176807
0.172217
0.186826
0.177981
0.167688
0.182372
0.180157
0.170374
0.178544
0.190437
0.147657
0.184426
0.199539
0.172138
0.188959
0.183202
0.158501
0.172192
0.16988
0.178049
0.187906
0.177861
0.192833
0.18687
0.179485
0.183319
0.191994
0.170381
0.180268
0.187802
0.168092
0.147627
0.148154
0.186525
0.188966
0.168696
0.150409
0.148995
0.179061
0.181064
0.176679
0.188086
0.171874
0.168747
0.186671
0.179906
0.188032
0.160976
0.163424
0.189343
0.174384
0.184554
0.194084
0.176604
0.171035
0.193117
0.196008
0.16647
0.183299
0.179477
0.1758
0.174843
0.181706
0.176871
0.179952
0.16954
0.18334
0.187398
0.188076
0.16958
0.16958
0.182794
0.182794
0.181754
0.178162
0.175261
0.157683
0.163485
0.152232
0.156737
0.176693
0.182685
0.182631
0.172256
0.164591
0.16632
0.187497
0.172008
0.160165
0.167004
0.167496
0.173211
0.162367
0.182115
0.172909
0.155522
0.172916
0.190251
0.183607
0.160632
0.169377
0.178617
0.202006
0.19234
0.197093
0.158779
0.181771
0.207516
0.185138
0.167372
0.161112
0.162395
0.171141
0.177369
0.183947
0.175273
0.166108
0.172839
0.151392
0.139601
0.162853
0.179378
0.198905
0.181297
0.166334
0.178134
0.178134
0.161973
0.177582
0.150375
0.156238
0.143599
0.15159
0.162857
0.172504
0.167433
0.170847
0.15773
0.152733
0.182906
0.186063
0.20085
0.171602
0.166334
0.188915
0.183037
0.190341
0.18352
0.181447
0.188309
0.172102
0.168262
0.170226
0.178376
0.179419
0.179419
0.192385
0.164029
0.168158
0.185222
0.158352
0.170971
0.174702
0.14991
0.153355
0.168405
0.175408
0.160257
0.176612
0.194608
0.174897
0.172189
0.149154
0.161802
0.164352
0.172593
0.156468
0.174992
0.181337
0.160124
0.159059
0.172414
0.171415
0.169875
0.180764
0.180764
0.190087
0.198175
0.183479
0.177205
0.176215
0.169151
0.170361
0.163297
0.176778
0.17619
0.188824
0.192385
0.179824
0.172445
0.182598
0.186956
0.149393
0.159648
0.170005
0.19338
0.188268
0.188268
0.172542
0.179854
0.170054
0.20019
0.206187
0.190087
0.19338
0.21637
0.199967
0.191694
0.200954
0.196166
0.188386
0.188386
0.185511
0.214484
0.184415
0.196166
0.195083
0.244735
0.239405
0.240643
0.240643
0.249883
0.239405
0.279177
0.32532
0.414766
0.414766
0.32532
0.466427
0.688414
0.656195
0.972878
0.864761
0.991941
0.924535
0.70479
0.796461
0.610016
0.915658
0.765456
0.752269
0.66124
0.831092
0.771092
0.976821
0.900954
0.931798
0.931798
0.916221
0.604148
0.949861
0.784973
0.838982
0.786697
0.951263
0.928708
0.922222
0.906564
0.978058
0.620279
0.942893
0.700221
0.930071
0.918651
0.985316
0.963481
0.990287
0.947964
0.951561
0.827578
0.896892
0.923493
0.91265
0.993665
0.932388
0.97189
0.970685
0.874443
0.976731
0.985476
0.790688
0.975409
0.7415
0.90866
0.906876
0.878747
0.917403
0.913825
0.970442
0.798537
0.983158
0.720456
0.925017
0.787767
0.713714
0.967767
0.887911
0.979457
0.925709
0.927009
0.79515
0.910993
0.56777
0.986356
0.803178
0.903925
0.962267
0.796336
0.996968
0.997739
0.945774
0.994383
0.973774
0.948949
0.962292
0.89797
0.893015
0.921557
0.957792
0.981735
0.971797
0.876043
0.978881
0.863811
0.914355
0.959461
0.939835
0.666913
0.863964
0.753016
0.911829
0.442782
0.856394
0.825291
1
0.916727
0
0.771006
0.873379
0.852546
0.867905
0.93085
0.628446
0.872269
0.360609
1
0.976169
0
0.739913
0.990446
0.982392
0.961574
0.839085
0.982989
0.88559
0.88559
0.989059
0.88559
0.829179
0.969763
0.950571
0.829179
0.965425
0.972359
0.771118
0.933418
0.849506
0
0.755876
1
0.905771
0.996557
0.996557
0.960167
0.9602
0.996557
0.707805
1
1
1
0.998548
0.812825
0.810928
0.779967
0.928964
0.614548
0.824533
0.928964
0.686604
0.778374
0.841723
0.875901
0.870134
0.958825
1
0.998957
0.857666
0.613946
0.842429
0.925427
0.925427
0.998674
0.909958
0.925427
0
0.870168
0.974796
0.837824
0.992838
0.931374
0.737128
0.796431
0.899415
0
0.821099
1
0.768331
0
0.928523
0.980308
0.832041
0.68896
0.817627
0.768647
0.806165
0.961742
0.872359
0.654097
0.964169
0.761068
0.878085
0.611206
0.999203
0.996257
0.342267
1
0.991042
0
0.842572
0.773126
0.898406
0.770874
0.90196
0
0.938869
0.837325
0
0.670337
0.780363
0
0.777593
0.780758
0.934618
0
0.969902
0.883249
0.893507
0.927895
0.984694
0.835604
0.981812
0.77756
0.871785
0.926984
0.974416
0.873435
0.9826
0.895515
0.895515
1
1
1
0
0
1
0.923963
0.73191
0.995087
0.923963
0.993968
1
0.870469
0
0.986294
0
1
0.837581
1
0.929721
0
0.977108
0.696412
0
0.918619
0.91449
1
0.882489
0.26327
0.574978
1
0.537584
0
0.898626
0.891708
0.995715
0.829794
0.985453
0.984066
0.84932
0.907283
0.84932
0
0.841399
0
0
0.996125
0.792934
0.986398
0.808655
0.808655
0.851208
1
0.785341
0
0.772501
0
0.970786
0.903904
0.772501
0.970786
1
0
0
0
0
0.712371
0.861117
0.861117
0.804489
0.712371
1
0.900239
1
0.716945
0
0.896615
0.896615
1
0.857009
0.857009
0.913854
0.857009
0.91892
0.796037
0.887634
1
0.868565
0
0
0
0
0
1
1
0.762714
1
0.959383
0.994591
0.863068
0.863068
0
0
1
0.97083
0.97083
0
0
0.97083
0.804602
0.804602
0
0
1
1
1
1
0
0
0
0
0
0
1
0
0.460338
0.722061
0.889831
1
1
0.829563
1
1
0.825324
1
0.920365
0.930328
0.742533
1
1
0.913086
0
0
0.768662
0.916331
0.809884
0.8456
0.8456
0.925704
0
0.848556
1
1
0.8938
0.8938
0.791433
0.791433
0.992149
0.986166
1
0.992149
1
1
1
0.749586
1
0.873101
0.873101
1
1
1
0
0
0
0.967189
0.967189
0
0.721864
0
0
0.967189
1
0
0.912176
0.912176
0
0
0.912176
0.888392
1
0.964623
0
0.793183
0
0.534975
0
0.905567
0
0
0.806924
0.806924
0
1
0.799586
0.644806
1
1
0.7723
1
1
0.7723
1
0.892599
0
0.823163
1
0
0
0
0
1
0.959389
0
1
1
0
0
0
0
0.827721
1
0.821185
1
0.84472
0.84472
1
1
1
1
0
0
0.856363
1
0
0
1
1
0
0.965646
0.965646
1
0.848353
0.965646
1
1
0.893491
0.942872
0.856453
0.895498
0.863918
0.863918
0.895498
0
1
1
0
1
1
1
0.901351
0
0
0.901351
0
0
1
0
0
1
1
0
0
0.857109
0
0.834295
1
1
0
0
0
0.834295
1
0
0
0.970074
0.970074
0
0.970074
0.914936
0
1
1
0
1
0
1
0
0
0
0
0.764759
0.965468
1
0
0.764759
0
1
1
0
0
1
0
0
1
0
1
0
0.886764
0.886764
0
0.935204
0.886764
0
0.811754
1
0
0
0.811754
0
0
0
0
0
0
0
0
0
0.950162
0.867014
0.96814
0
0
0
0.950162
0.867014
0.767435
0.767435
0
0
0.767435
0.772399
0
0.772399
0.846361
0
0
1
1
1
0
1
0
1
1
0
0.466993
0.466993
1
0
0
0.792299
0.792299
0.466993
0.702498
0.702498
0
0
0
0.702498
0.0123382
0
0
0
0
0
0
0
0
0
1
1
0
1
0
1
1
0
1
0.8251
1
0.802685
0.802685
1
0.873735
1
1
0.851144
1
1
1
1
0.73222
0
0.860385
0.860385
0
0
0
1
1
0
1
0
0
0
1
1
0
0
1
0
0
0
0
1
0
1
0.865957
0
1
0.865957
0.666884
1
0
0
0
0
0
0
1
1
0
0
0.981145
1
0
0.732179
0.732179
0
0
0.914262
0.755392
0.755392
1
1
0.914262
0
1
0
0
1
1
1
0
0
0
1
0
0.901249
1
1
0.986807
1
1
0
0.847684
0.847684
1
1
0
0
0
0.922737
0.847684
1
0
0
0.922737
1
0.991146
0
0.991146
0
1
1
0
1
0
1
0
1
1
1
0.784926
1
1
1
1
1
1
1
1
1
1
1
1
0.93235
0.93235
1
1
1
0.93235
1
0
1
0
1
1
0
0.91199
0.91199
0
0.731295
0.731295
0.91199
0
1
0
0.816157
0.92038
0.92038
0
1
0.709256
0.709256
0.92038
0.994088
1
0.724195
0.709256
1
0
0
0
0
0.724195
1
1
0.931589
0.931589
0
1
1
0
0.931589
1
0
0
0
0
0.9482
1
0
0
0
0
0
0.9482
0
0
0
1
0
1
1
1
1
1
1
0
1
1
0
1
0.998164
0.998164
0
0
1
0.998164
0.637685
1
1
1
1
0
0.637685
0
0
0
0
1
0
0.551658
0.551658
0
0.820576
0.820576
0.551658
0
0
0
0
0
0
0
0.983185
0.983185
1
0.867921
0.983185
0
0
1
0
0
0.867921
0
1
0
0
0.836467
0.836467
0
0
0.799059
0.836467
0
0.812759
1
0.825647
1
1
0.825647
0
1
1
1
1
1
0
0
1
0
1
0.995564
0
0.981041
0.981041
0.948414
0
0
0
1
0.981041
0.948414
0
0
1
0
0
1
0
1
1
1
1
1
0.994139
0.994139
1
1
0
1
0.994139
1
0
1
1
1
0
1
1
1
0
0
1
1
1
0.990148
0.990148
0
0.81252
0.81252
0.990148
0.986697
0.986697
0
0
0.832061
0.986697
0.840565
0.856457
0.645855
0.856457
1
1
0
0.645855
0.999522
0.999522
1
1
1
0
0
0.999522
0
0.760716
0
0.892132
0
0
0.892132
1
1
1
0
1
0
1
1
1
0
1
0
1
0
0
1
0
1
1
1
0
1
0
0
1
1
1
0
1
0.829432
1
0.885225
0.829432
1
1
0
1
1
0
0
0
0
0
0
0
0
0
0.990357
0.990357
0.470443
0
1
0.990357
0.470443
0.72516
0.72516
1
0
0
0
1
1
0.985477
0.985477
0.99456
0
0.804752
0.985477
0.99456
0.776144
0.762948
0.804752
1
1
0.764469
0.669916
0.669916
0.669916
1
0
0
1
0.764469
0.669916
0.885846
0
0.843607
0
0.813451
0.813451
0
0
0
0
0
0
0
0
0
0
1
0
0
0
0
0
0
1
0
1
0
0
0
1
0
0
1
0
0
0
0
0
0
0
0
0.864021
0.864021
0
0
1
1
0.685224
0.863163
0.864021
0
0
0
1
0
0
0
0
1
0.746696
0.746696
0.811861
0
0.817376
0.746696
0.811861
1
0
1
1
1
1
1
0
0
0
0
1
0
1
0
0
0
0
1
0
0.991824
0.991824
0
0.995897
0.98882
0.98882
0.991824
1
0
0
0.793215
0.995897
0.98882
1
1
0
0.587026
0.903493
0.903493
0.785164
0.903493
1
1
1
0.772782
0.785164
0
0
1
1
1
0
1
0
0
0
1
0
1
0
0
0
0.850278
0.850278
0.827419
1
0
0
0
0
0.850278
0.827419
1
0.754361
0.754361
1
1
1
1
1
0
1
1
0.998003
0.998003
0
1
1
0.998003
0.759438
0
0
0.759438
0.908744
0
0
0
1
1
0
0.779108
0.779108
1
0
0
0.779108
1
1
0
0.832884
1
0.77043
0.77043
1
1
1
0
0
0
1
0
1
0
0.872887
0.872887
0.828609
0
0
1
0.872887
0
0
0
1
1
0
0
0.9956
0.9956
1
1
1
1
0
0
0.9956
1
1
1
1
0
1
1
1
0
0.977273
0.977273
0
0
0.977273
0.757456
0
1
0.757456
1
1
0.909332
0.974215
0.974215
1
0.852585
0.909332
0.974215
0
1
1
1
0.886894
0
1
1
1
0
1
0
1
1
0
0
0.767658
0
0
0.652056
0.652056
0
0
1
1
0
0.987496
0.987496
0
0
0.987496
1
0
0
1
0
0
0
0.941294
0.941294
0
0.745045
0.745045
0.941294
0
0
0.798233
1
1
0
1
1
0.820057
0.820057
0
0
1
1
0
1
1
0
1
0
0.859083
1
0.885185
0.885185
0
0
0
1
0
0
0
1
1
0
0
0
1
0
0
1
1
0.895888
0.895888
0
0
0.825695
0.895888
0.806016
1
0.825695
0.806016
1
1
1
0.831723
0
0
0.831723
0
1
0.763291
0.763291
1
0.881898
0.763291
1
1
0.907358
1
1
0.896693
0.896693
1
0
1
1
0
1
0
1
1
0
1
1
0
1
1
1
0
0
0.954739
0.954739
1
0
0.954739
0.948799
0.830084
1
0
0
0
0
0.905118
0.905118
1
1
1
1
0
0
0
0.981977
0.905118
1
0
0
0
0.994045
1
1
1
1
0.994045
1
0
0
0
0
1
0
0
1
0
1
0
0
1
0.639671
1
1
1
0
0.768508
1
1
1
0
0
0.808201
0
0.808201
0.968868
0.968868
1
0.922772
0
0.968868
0
0
1
1
1
0
0
0
0.773936
0
0
0
0
0
0
0.993825
0.993825
0
0
0.993825
0.745033
1
0.792143
0
0.707397
0
0
0.707397
1
1
1
1
0.860699
0.860699
1
0
0
0
1
0.860699
0
1
1
0.872389
0.872389
0
0
1
1
0.872389
0.994749
1
0
0.947075
0.947075
0.994749
0
1
1
1
1
1
0.947075
0
0
0
0
0
0
1
0
0
1
1
0
0
1
1
1
0.898043
0
0
0
0
0
0.898043
1
1
0
1
1
0
0
1
0
0
0.99153
0.99153
0
0
1
0.99153
0
0.815536
0.815536
0
0
1
0
0
1
0
0
0
0
0
0
0.954729
0.954729
0
0
0.703143
0.746869
0.954729
0.853596
0.853596
0
1
1
1
0.853596
0.814195
0
0
0.784192
0
0
0.859538
0.859538
0
0
0
0
1
0
1
0.871778
1
0.797042
0.797042
0.871599
1
0.834383
0.797042
0.871599
1
0
1
0.817132
0.817132
0.978038
1
0
0.817132
0.978038
0.800822
0.800822
1
1
1
1
0
1
0.972288
0.972288
0.925685
0.925685
0
0.972288
0.805763
0.805763
0
0
0
0.805763
1
0
0
0.896304
0.896304
1
0.95009
0.95009
0.896304
1
0.439554
0.95009
1
1
1
1
0
0.439554
1
1
1
1
0.866257
1
1
0.866257
0.81083
0
0
1
1
0
0
0.993505
0.993505
1
1
0.993505
0.689843
0.787042
0
0
0
0
0
0
1
1
1
0
0.933358
1
0
0.795526
0
0.683285
0.975114
0.975114
0.77074
0.688668
0.688668
0.683285
0.975114
0.906576
0.906576
0.793406
0.779816
0.779816
0
0
0.793406
0
0
1
0.62794
0.62794
0.828503
0.828503
0
0.759728
0.759728
0.637067
0.62794
0.828503
0.764614
0.764614
0
0.807965
1
0.908745
0.908745
0.871265
0.785724
0.785724
0.315175
0.908745
1
0.785724
0.610883
0.703038
0.358133
0.365073
0.365595
0.363652
0.354547
0.363615
0.373756
0.378015
0.362007
0.372096
0.361113
0.363591
0.347177
0.363277
0.352591
0.365926
0.359196
0.368866
0.373697
0.363569
0.359622
0.381499
0.367758
0.379217
0.366048
0.363157
0.374773
0.364641
0.35937
0.347323
0.370493
0.386762
0.370649
0.373124
0.371802
0.36183
0.364618
0.358655
0.361806
0.363147
0.363676
0.360869
0.36029
0.369494
0.380737
0.36659
0.367088
0.376675
0.38603
0.375455
0.349568
0.375076
0.362375
0.336895
0.365407
0.365287
0.373672
0.354405
0.379907
0.370808
0.365351
0.352425
0.347569
0.395241
0.363412
0.356523
0.35702
0.357713
0.364026
0.371086
0.365276
0.387437
0.365538
0.350733
0.36955
0.360465
0.364002
0.343964
0.373524
0.375953
0.372466
0.368558
0.358057
0.362294
0.352583
0.37383
0.378429
0.374248
0.362443
0.36526
0.368316
0.360864
0.354806
0.360401
0.344917
0.356286
0.380992
0.367098
0.369099
0.349676
0.365544
0.381028
0.367853
0.382525
0.383625
0.354146
0.344519
0.354561
0.354101
0.371446
0.35344
0.373302
0.383431
0.354729
0.363717
0.364148
0.354002
0.383315
0.354105
0.356719
0.379499
0.36877
0.371329
0.362081
0.380769
0.37755
0.364172
0.352992
0.360248
0.377752
0.358234
0.372443
0.388919
0.37299
0.3535
0.351278
0.364884
0.361348
0.37461
0.3669
0.359094
0.355405
0.392522
0.367329
0.364082
0.36743
0.37266
0.344265
0.34446
0.368122
0.356176
0.376888
0.354011
0.362974
0.37803
0.374793
0.369491
0.364911
0.351378
0.348701
0.365883
0.377991
0.374394
0.358081
0.373685
0.383104
0.376984
0.362262
0.361929
0.358005
0.363059
0.379835
0.350358
0.374526
0.367882
0.372501
0.360903
0.364709
0.372003
0.376909
0.355898
0.370367
0.368016
0.351766
0.379772
0.385593
0.365497
0.347025
0.364525
0.36835
0.356959
0.361497
0.383331
0.382818
0.373261
0.357258
0.362249
0.365983
0.362935
0.377809
0.359161
0.365373
0.382196
0.356899
0.357405
0.369957
0.356231
0.370713
0.369761
0.372633
0.359442
0.366028
0.363584
0.369502
0.370043
0.36662
0.381159
0.354741
0.363262
0.353944
0.361071
0.359898
0.360694
0.368365
0.365185
0.372428
0.365755
0.377289
0.365088
0.360341
0.327991
0.3716
0.35905
0.36217
0.369956
0.379056
0.356485
0.367638
0.359533
0.369728
0.370019
0.369231
0.36201
0.374747
0.381554
0.373157
0.349284
0.36515
0.367149
0.365845
0.371318
0.379795
0.394603
0.369857
0.359773
0.349257
0.371927
0.372514
0.361085
0.370598
0.350455
0.363266
0.368791
0.362418
0.3812
0.370456
0.352717
0.362517
0.374633
0.36457
0.359143
0.368141
0.384642
0.368516
0.345863
0.360399
0.347583
0.367236
0.368625
0.366894
0.370363
0.375824
0.375647
0.382446
0.364308
0.370881
0.36665
0.354143
0.360169
0.373269
0.3418
0.360065
0.368311
0.37385
0.384599
0.366815
0.36764
0.372624
0.357062
0.350715
0.372431
0.368628
0.365922
0.355696
0.372259
0.379665
0.378995
0.368444
0.380918
0.366783
0.351346
0.346229
0.351619
0.361187
0.374026
0.370779
0.370326
0.35855
0.366551
0.392535
0.370738
0.366653
0.357035
0.366613
0.35569
0.366846
0.371901
0.3654
0.356248
0.372662
0.373196
0.354342
0.366368
0.384065
0.363762
0.385223
0.364165
0.369343
0.352124
0.37178
0.352276
0.358935
0.364793
0.35631
0.362347
0.368573
0.374052
0.35234
0.366162
0.367505
0.359118
0.377316
0.372131
0.374626
0.366186
0.373669
0.356892
0.359948
0.374499
0.369404
0.376193
0.377751
0.37585
0.357706
0.355351
0.363134
0.372681
0.380212
0.381849
0.352602
0.368955
0.355014
0.381487
0.37882
0.375134
0.355342
0.374259
0.371225
0.346056
0.360974
0.371461
0.369125
0.360544
0.372322
0.369631
0.375503
0.366898
0.369041
0.373529
0.362229
0.356471
0.350648
0.367675
0.361615
0.361925
0.36589
0.369915
0.360389
0.37082
0.373007
0.372373
0.354778
0.362423
0.362106
0.367124
0.377107
0.363522
0.353538
0.383116
0.377168
0.36355
0.371
0.375976
0.350787
0.353002
0.362468
0.367624
0.372973
0.384347
0.371932
0.355364
0.356016
0.386375
0.362278
0.366615
0.359592
0.37967
0.373686
0.340887
0.370167
0.388024
0.352208
0.371925
0.397262
0.362272
0.366842
0.356979
0.368564
0.377476
0.353913
0.359576
0.365189
0.365087
0.365919
0.370124
0.35971
0.353418
0.385606
0.380036
0.354295
0.359733
0.361194
0.362918
0.363718
0.359277
0.37265
0.381836
0.359452
0.369033
0.380789
0.355211
0.358541
0.381258
0.35507
0.368463
0.392473
0.357026
0.356928
0.363752
0.365056
0.368957
0.345611
0.361705
0.34979
0.383107
0.368825
0.362849
0.373657
0.379027
0.379023
0.361512
0.369602
0.373885
0.357655
0.364303
0.364052
0.3619
0.3376
0.363041
0.380725
0.367689
0.368591
0.383986
0.373774
0.367885
0.368837
0.351707
0.36103
0.368034
0.369669
0.372513
0.351786
0.349549
0.359917
0.359232
0.369481
0.36919
0.377799
0.376273
0.357163
0.353848
0.373543
0.35243
0.382771
0.374939
0.372596
0.368758
0.36656
0.373553
0.356391
0.37626
0.365069
0.397275
0.369382
0.35322
0.350103
0.355207
0.389651
0.356477
0.359313
0.370899
0.357193
0.354857
0.375759
0.364326
0.356408
0.378183
0.360475
0.373127
0.375901
0.37393
0.35925
0.347327
0.368899
0.368488
0.364593
0.389493
0.362414
0.369416
0.362296
0.357142
0.35789
0.369877
0.383951
0.353188
0.352212
0.343369
0.380545
0.372392
0.378149
0.365497
0.348004
0.373902
0.377782
0.355497
0.362071
0.372215
0.372194
0.357387
0.374717
0.369454
0.362752
0.36616
0.355832
0.355966
0.358228
0.378722
0.365908
0.364294
0.368282
0.361593
0.364543
0.370726
0.385078
0.363306
0.366337
0.373565
0.353649
0.348138
0.375795
0.35784
0.371928
0.369419
0.377785
0.364827
0.366339
0.375978
0.358889
0.353544
0.375287
0.357938
0.355175
0.366669
0.366178
0.347077
0.372211
0.382686
0.367596
0.368344
0.358813
0.368308
0.376898
0.368328
0.366404
0.36181
0.357306
0.356349
0.356063
0.36062
0.367018
0.374072
0.37181
0.359877
0.362743
0.371991
0.365039
0.369545
0.367591
0.347262
0.341547
0.391163
0.390352
0.362354
0.356614
0.370308
0.362984
0.36869
0.365314
0.362014
0.367167
0.376819
0.377682
0.370021
0.360854
0.362014
0.344602
0.37877
0.369766
0.385195
0.350232
0.386693
0.379114
0.375309
0.367771
0.367623
0.371394
0.367931
0.351098
0.348525
0.368975
0.366042
0.360318
0.372474
0.381928
0.368689
0.358142
0.402827
0.388637
0.374082
0.348831
0.36019
0.358023
0.365387
0.376986
0.377668
0.343994
0.360542
0.373461
0.355702
0.377997
0.389673
0.367047
0.358511
0.374296
0.376473
0.38142
0.35741
0.366896
0.356062
0.372128
0.379634
0.349138
0.358424
0.368979
0.3567
0.371286
0.37411
0.344571
0.365487
0.358008
0.378469
0.384351
0.367213
0.363728
0.37725
0.361207
0.370166
0.367028
0.355908
0.365979
0.364358
0.376333
0.3755
0.376952
0.352916
0.382599
0.376624
0.373535
0.357202
0.338497
0.37141
0.367182
0.365915
0.371391
0.363613
0.360368
0.380129
0.363706
0.362779
0.373633
0.368199
0.383824
0.375116
0.345784
0.355069
0.375636
0.377767
0.366131
0.359721
0.366029
0.356139
0.378303
0.385785
0.374
0.365938
0.357954
0.364636
0.390293
0.368143
0.366292
0.364697
0.381184
0.367816
0.358322
0.364957
0.377381
0.377462
0.362417
0.358709
0.366049
0.356065
0.359663
0.367283
0.366225
0.377719
0.351026
0.360744
0.372406
0.373168
0.374297
0.355013
0.354349
0.368208
0.376319
0.367725
0.35692
0.365068
0.348352
0.375169
0.371702
0.374937
0.358296
0.357114
0.353956
0.375427
0.379555
0.359801
0.377767
0.376417
0.355803
0.382427
0.359815
0.360857
0.354264
0.362586
0.371401
0.340801
0.374081
0.377815
0.363662
0.361039
0.368565
0.356179
0.370495
0.369577
0.376235
0.386619
0.373151
0.37142
0.36421
0.372145
0.352492
0.361271
0.386209
0.372102
0.37861
0.369289
0.368413
0.361858
0.353251
0.370672
0.360361
0.364554
0.38746
0.359658
0.356236
0.371909
0.361187
0.353662
0.34756
0.356692
0.370822
0.369004
0.379559
0.349835
0.365362
0.365551
0.370848
0.360397
0.357954
0.352897
0.37827
0.383797
0.376985
0.365633
0.36399
0.348948
0.388984
0.386009
0.374343
0.354926
0.355005
0.347708
0.343233
0.378002
0.365811
0.374162
0.360939
0.367513
0.378513
0.366325
0.337039
0.360616
0.370035
0.357122
0.356349
0.368596
0.379455
0.378666
0.360975
0.363141
0.346283
0.363358
0.346663
0.372048
0.36653
0.381484
0.378359
0.356858
0.35272
0.382053
0.366341
0.37392
0.363028
0.345814
0.374709
0.356014
0.357558
0.360687
0.370843
0.371678
0.369385
0.37433
0.358064
0.349758
0.355604
0.369174
0.369052
0.366855
0.403089
0.360532
0.346093
0.36729
0.364816
0.368202
0.360552
0.371634
0.358797
0.347318
0.369972
0.371012
0.379226
0.351478
0.361176
0.366678
0.371881
0.38132
0.36418
0.356418
0.349396
0.359581
0.358336
0.385565
0.369245
0.364186
0.367239
0.3564
0.375829
0.35913
0.378964