# vtk DataFile Version 2.0
2D Surface
ASCII
DATASET UNSTRUCTURED_GRID
POINTS 2011 float
6.77401e-05 -9.72e-06 0. 
6.777e-05 -9.72033e-06 0. 
6.786e-05 -9.72198e-06 0. 
6.795e-05 -9.72374e-06 0. 
6.804e-05 -9.72659e-06 0. 
6.813e-05 -9.73709e-06 0. 
6.822e-05 -9.73603e-06 0. 
6.831e-05 -9.73737e-06 0. 
6.84e-05 -9.74611e-06 0. 
6.849e-05 -9.74598e-06 0. 
6.858e-05 -9.74587e-06 0. 
6.867e-05 -9.74401e-06 0. 
6.876e-05 -9.73992e-06 0. 
6.885e-05 -9.73684e-06 0. 
6.894e-05 -9.73741e-06 0. 
6.903e-05 -9.74125e-06 0. 
6.912e-05 -9.74493e-06 0. 
6.921e-05 -9.74062e-06 0. 
6.93e-05 -9.73542e-06 0. 
6.939e-05 -9.74014e-06 0. 
6.948e-05 -9.73882e-06 0. 
6.957e-05 -9.74446e-06 0. 
6.966e-05 -9.7485e-06 0. 
6.975e-05 -9.74972e-06 0. 
6.984e-05 -9.75075e-06 0. 
6.993e-05 -9.75532e-06 0. 
7.002e-05 -9.75852e-06 0. 
7.011e-05 -9.76035e-06 0. 
7.02e-05 -9.75411e-06 0. 
7.029e-05 -9.75247e-06 0. 
7.038e-05 -9.74673e-06 0. 
7.047e-05 -9.74725e-06 0. 
7.056e-05 -9.75511e-06 0. 
7.065e-05 -9.75023e-06 0. 
7.074e-05 -9.75499e-06 0. 
7.083e-05 -9.75942e-06 0. 
7.092e-05 -9.7559e-06 0. 
7.101e-05 -9.75283e-06 0. 
7.11e-05 -9.76142e-06 0. 
7.119e-05 -9.761e-06 0. 
7.128e-05 -9.75495e-06 0. 
7.137e-05 -9.75762e-06 0. 
7.146e-05 -9.74844e-06 0. 
7.155e-05 -9.75457e-06 0. 
7.164e-05 -9.7545e-06 0. 
7.173e-05 -9.75236e-06 0. 
7.182e-05 -9.75576e-06 0. 
7.191e-05 -9.75814e-06 0. 
7.2e-05 -9.75948e-06 0. 
7.209e-05 -9.76034e-06 0. 
7.218e-05 -9.76521e-06 0. 
7.227e-05 -9.77142e-06 0. 
7.236e-05 -9.77104e-06 0. 
7.245e-05 -9.76807e-06 0. 
7.254e-05 -9.77113e-06 0. 
7.263e-05 -9.76814e-06 0. 
7.272e-05 -9.77318e-06 0. 
7.281e-05 -9.76935e-06 0. 
7.29e-05 -9.77018e-06 0. 
7.299e-05 -9.77471e-06 0. 
7.308e-05 -9.7827e-06 0. 
7.317e-05 -9.78448e-06 0. 
7.326e-05 -9.7817e-06 0. 
7.335e-05 -9.7843e-06 0. 
7.344e-05 -9.77696e-06 0. 
7.353e-05 -9.77853e-06 0. 
7.362e-05 -9.77782e-06 0. 
7.371e-05 -9.7761e-06 0. 
7.38e-05 -9.76491e-06 0. 
7.389e-05 -9.76698e-06 0. 
7.398e-05 -9.77086e-06 0. 
7.407e-05 -9.77149e-06 0. 
7.416e-05 -9.77228e-06 0. 
7.425e-05 -9.76822e-06 0. 
7.434e-05 -9.7729e-06 0. 
7.443e-05 -9.77807e-06 0. 
7.452e-05 -9.78233e-06 0. 
7.461e-05 -9.77308e-06 0. 
7.47e-05 -9.77233e-06 0. 
7.479e-05 -9.77709e-06 0. 
7.488e-05 -9.78039e-06 0. 
7.497e-05 -9.78018e-06 0. 
7.506e-05 -9.77782e-06 0. 
7.515e-05 -9.77639e-06 0. 
7.524e-05 -9.78173e-06 0. 
7.533e-05 -9.7804e-06 0. 
7.542e-05 -9.78006e-06 0. 
7.551e-05 -9.77203e-06 0. 
7.56e-05 -9.76608e-06 0. 
7.569e-05 -9.76762e-06 0. 
7.578e-05 -9.76658e-06 0. 
7.587e-05 -9.76359e-06 0. 
7.596e-05 -9.75974e-06 0. 
7.605e-05 -9.7704e-06 0. 
7.614e-05 -9.77211e-06 0. 
7.623e-05 -9.77204e-06 0. 
7.632e-05 -9.77563e-06 0. 
7.641e-05 -9.77613e-06 0. 
7.65e-05 -9.78299e-06 0. 
7.659e-05 -9.77424e-06 0. 
7.668e-05 -9.76647e-06 0. 
7.677e-05 -9.7636e-06 0. 
7.686e-05 -9.7584e-06 0. 
7.695e-05 -9.7661e-06 0. 
7.704e-05 -9.76876e-06 0. 
7.713e-05 -9.77025e-06 0. 
7.722e-05 -9.77082e-06 0. 
7.731e-05 -9.77929e-06 0. 
7.74e-05 -9.77787e-06 0. 
7.749e-05 -9.77364e-06 0. 
7.758e-05 -9.76937e-06 0. 
7.767e-05 -9.76558e-06 0. 
7.776e-05 -9.75694e-06 0. 
7.785e-05 -9.75924e-06 0. 
7.794e-05 -9.75757e-06 0. 
7.803e-05 -9.76021e-06 0. 
7.812e-05 -9.75121e-06 0. 
7.821e-05 -9.75735e-06 0. 
7.83e-05 -9.76038e-06 0. 
7.839e-05 -9.75984e-06 0. 
7.848e-05 -9.75878e-06 0. 
7.857e-05 -9.75853e-06 0. 
7.866e-05 -9.75548e-06 0. 
7.875e-05 -9.75107e-06 0. 
7.884e-05 -9.75353e-06 0. 
7.893e-05 -9.75124e-06 0. 
7.902e-05 -9.75613e-06 0. 
7.911e-05 -9.75688e-06 0. 
7.92e-05 -9.76192e-06 0. 
7.929e-05 -9.7592e-06 0. 
7.938e-05 -9.76343e-06 0. 
7.947e-05 -9.76122e-06 0. 
7.956e-05 -9.75529e-06 0. 
7.965e-05 -9.74975e-06 0. 
7.974e-05 -9.75714e-06 0. 
7.983e-05 -9.75911e-06 0. 
7.992e-05 -9.75454e-06 0. 
8.001e-05 -9.74778e-06 0. 
8.01e-05 -9.73986e-06 0. 
8.019e-05 -9.74146e-06 0. 
8.028e-05 -9.74854e-06 0. 
8.037e-05 -9.74829e-06 0. 
8.046e-05 -9.74036e-06 0. 
8.055e-05 -9.73056e-06 0. 
8.064e-05 -9.73192e-06 0. 
8.073e-05 -9.73377e-06 0. 
8.082e-05 -9.72935e-06 0. 
8.091e-05 -9.73126e-06 0. 
8.1e-05 -9.72633e-06 0. 
8.109e-05 -9.73071e-06 0. 
8.118e-05 -9.72935e-06 0. 
8.127e-05 -9.7229e-06 0. 
8.136e-05 -9.72423e-06 0. 
8.145e-05 -9.72422e-06 0. 
8.154e-05 -9.72284e-06 0. 
8.163e-05 -9.72334e-06 0. 
8.172e-05 -9.72431e-06 0. 
8.181e-05 -9.72437e-06 0. 
8.19e-05 -9.7203e-06 0. 
8.199e-05 -9.72486e-06 0. 
8.208e-05 -9.72645e-06 0. 
8.217e-05 -9.72254e-06 0. 
8.21942e-05 -9.72e-06 0. 
6.46183e-05 -9.63e-06 0. 
6.462e-05 -9.63016e-06 0. 
6.471e-05 -9.63791e-06 0. 
6.48e-05 -9.63953e-06 0. 
6.489e-05 -9.64342e-06 0. 
6.498e-05 -9.65105e-06 0. 
6.507e-05 -9.65627e-06 0. 
6.516e-05 -9.66237e-06 0. 
6.525e-05 -9.6676e-06 0. 
6.534e-05 -9.66845e-06 0. 
6.543e-05 -9.66877e-06 0. 
6.552e-05 -9.66587e-06 0. 
6.561e-05 -9.66797e-06 0. 
6.57e-05 -9.67016e-06 0. 
6.579e-05 -9.67255e-06 0. 
6.588e-05 -9.67002e-06 0. 
6.597e-05 -9.6726e-06 0. 
6.606e-05 -9.68309e-06 0. 
6.615e-05 -9.68445e-06 0. 
6.624e-05 -9.68357e-06 0. 
6.633e-05 -9.6843e-06 0. 
6.642e-05 -9.69135e-06 0. 
6.651e-05 -9.69203e-06 0. 
6.66e-05 -9.69218e-06 0. 
6.669e-05 -9.69101e-06 0. 
6.678e-05 -9.70002e-06 0. 
6.687e-05 -9.69975e-06 0. 
6.696e-05 -9.70719e-06 0. 
6.705e-05 -9.70986e-06 0. 
6.714e-05 -9.70873e-06 0. 
6.723e-05 -9.70474e-06 0. 
6.732e-05 -9.70281e-06 0. 
6.741e-05 -9.70275e-06 0. 
6.75e-05 -9.70892e-06 0. 
6.759e-05 -9.71739e-06 0. 
6.768e-05 -9.71933e-06 0. 
8.226e-05 -9.7131e-06 0. 
8.235e-05 -9.70627e-06 0. 
8.244e-05 -9.70085e-06 0. 
8.253e-05 -9.70052e-06 0. 
8.262e-05 -9.69925e-06 0. 
8.271e-05 -9.704e-06 0. 
8.28e-05 -9.70437e-06 0. 
8.289e-05 -9.70629e-06 0. 
8.298e-05 -9.7073e-06 0. 
8.307e-05 -9.70092e-06 0. 
8.316e-05 -9.70131e-06 0. 
8.325e-05 -9.70455e-06 0. 
8.334e-05 -9.69962e-06 0. 
8.343e-05 -9.69987e-06 0. 
8.352e-05 -9.70092e-06 0. 
8.361e-05 -9.69476e-06 0. 
8.37e-05 -9.69292e-06 0. 
8.379e-05 -9.69107e-06 0. 
8.388e-05 -9.68905e-06 0. 
8.397e-05 -9.68977e-06 0. 
8.406e-05 -9.6831e-06 0. 
8.415e-05 -9.67967e-06 0. 
8.424e-05 -9.6678e-06 0. 
8.433e-05 -9.65866e-06 0. 
8.442e-05 -9.66428e-06 0. 
8.451e-05 -9.66489e-06 0. 
8.46e-05 -9.66485e-06 0. 
8.469e-05 -9.6581e-06 0. 
8.478e-05 -9.65938e-06 0. 
8.487e-05 -9.65602e-06 0. 
8.496e-05 -9.65149e-06 0. 
8.505e-05 -9.64246e-06 0. 
8.514e-05 -9.63507e-06 0. 
8.51943e-05 -9.63e-06 0. 
6.29234e-05 -9.54e-06 0. 
6.3e-05 -9.54678e-06 0. 
6.309e-05 -9.55191e-06 0. 
6.318e-05 -9.55719e-06 0. 
6.327e-05 -9.56319e-06 0. 
6.336e-05 -9.56835e-06 0. 
6.345e-05 -9.57214e-06 0. 
6.354e-05 -9.58152e-06 0. 
6.363e-05 -9.59192e-06 0. 
6.372e-05 -9.59313e-06 0. 
6.381e-05 -9.59513e-06 0. 
6.39e-05 -9.59908e-06 0. 
6.399e-05 -9.60239e-06 0. 
6.408e-05 -9.60208e-06 0. 
6.417e-05 -9.59975e-06 0. 
6.426e-05 -9.60781e-06 0. 
6.435e-05 -9.61348e-06 0. 
6.444e-05 -9.61999e-06 0. 
6.453e-05 -9.62167e-06 0. 
8.523e-05 -9.62666e-06 0. 
8.532e-05 -9.62025e-06 0. 
8.541e-05 -9.61901e-06 0. 
8.55e-05 -9.61601e-06 0. 
8.559e-05 -9.61532e-06 0. 
8.568e-05 -9.60943e-06 0. 
8.577e-05 -9.60705e-06 0. 
8.586e-05 -9.60392e-06 0. 
8.595e-05 -9.60209e-06 0. 
8.604e-05 -9.59855e-06 0. 
8.613e-05 -9.59392e-06 0. 
8.622e-05 -9.58729e-06 0. 
8.631e-05 -9.57439e-06 0. 
8.64e-05 -9.57547e-06 0. 
8.649e-05 -9.57666e-06 0. 
8.658e-05 -9.57753e-06 0. 
8.667e-05 -9.57328e-06 0. 
8.676e-05 -9.57027e-06 0. 
8.685e-05 -9.56578e-06 0. 
8.694e-05 -9.55869e-06 0. 
8.703e-05 -9.55123e-06 0. 
8.712e-05 -9.54439e-06 0. 
8.721e-05 -9.54221e-06 0. 
8.72318e-05 -9.54e-06 0. 
6.15504e-05 -9.45e-06 0. 
6.156e-05 -9.45132e-06 0. 
6.165e-05 -9.46045e-06 0. 
6.174e-05 -9.45942e-06 0. 
6.183e-05 -9.46415e-06 0. 
6.192e-05 -9.46979e-06 0. 
6.201e-05 -9.47544e-06 0. 
6.21e-05 -9.4876e-06 0. 
6.219e-05 -9.49641e-06 0. 
6.228e-05 -9.50164e-06 0. 
6.237e-05 -9.50714e-06 0. 
6.246e-05 -9.51686e-06 0. 
6.255e-05 -9.52279e-06 0. 
6.264e-05 -9.52758e-06 0. 
6.273e-05 -9.52498e-06 0. 
6.282e-05 -9.52905e-06 0. 
6.291e-05 -9.53881e-06 0. 
8.73e-05 -9.53311e-06 0. 
8.739e-05 -9.52272e-06 0. 
8.748e-05 -9.5187e-06 0. 
8.757e-05 -9.50944e-06 0. 
8.766e-05 -9.50195e-06 0. 
8.775e-05 -9.50075e-06 0. 
8.784e-05 -9.49856e-06 0. 
8.793e-05 -9.49059e-06 0. 
8.802e-05 -9.47579e-06 0. 
8.811e-05 -9.46333e-06 0. 
8.82e-05 -9.458e-06 0. 
8.829e-05 -9.45228e-06 0. 
8.83195e-05 -9.45e-06 0. 
6.07069e-05 -9.36e-06 0. 
6.075e-05 -9.40102e-06 0. 
6.084e-05 -9.38604e-06 0. 
6.093e-05 -9.3935e-06 0. 
6.102e-05 -9.40164e-06 0. 
6.111e-05 -9.42207e-06 0. 
6.12e-05 -9.42216e-06 0. 
6.129e-05 -9.42685e-06 0. 
6.138e-05 -9.42969e-06 0. 
6.147e-05 -9.43901e-06 0. 
8.838e-05 -9.44533e-06 0. 
8.847e-05 -9.43801e-06 0. 
8.856e-05 -9.4301e-06 0. 
8.865e-05 -9.41527e-06 0. 
8.874e-05 -9.41591e-06 0. 
8.883e-05 -9.3987e-06 0. 
8.892e-05 -9.40651e-06 0. 
8.901e-05 -9.40916e-06 0. 
8.91e-05 -9.41219e-06 0. 
8.919e-05 -9.42884e-06 0. 
8.928e-05 -9.44864e-06 0. 
8.93651e-05 -9.36e-06 0. 
6.06147e-05 -9.27e-06 0. 
6.066e-05 -9.31531e-06 0. 
8.937e-05 -9.35065e-06 0. 
8.94124e-05 -9.27e-06 0. 
6.05899e-05 -9.18e-06 0. 
8.9421e-05 -9.18e-06 0. 
6.05843e-05 -9.09e-06 0. 
8.94211e-05 -9.09e-06 0. 
6.05834e-05 -9e-06 0. 
8.94235e-05 -9e-06 0. 
6.05795e-05 -8.91e-06 0. 
8.94262e-05 -8.91e-06 0. 
6.05833e-05 -8.82e-06 0. 
8.94225e-05 -8.82e-06 0. 
6.05876e-05 -8.73e-06 0. 
8.94184e-05 -8.73e-06 0. 
6.05873e-05 -8.64e-06 0. 
8.94215e-05 -8.64e-06 0. 
6.05808e-05 -8.55e-06 0. 
8.9426e-05 -8.55e-06 0. 
6.0586e-05 -8.46e-06 0. 
8.94253e-05 -8.46e-06 0. 
6.05828e-05 -8.37e-06 0. 
8.94283e-05 -8.37e-06 0. 
6.05804e-05 -8.28e-06 0. 
8.94306e-05 -8.28e-06 0. 
6.05925e-05 -8.19e-06 0. 
8.94445e-05 -8.19e-06 0. 
6.05806e-05 -8.1e-06 0. 
8.94392e-05 -8.1e-06 0. 
6.05784e-05 -8.01e-06 0. 
8.94274e-05 -8.01e-06 0. 
6.05858e-05 -7.92e-06 0. 
8.94308e-05 -7.92e-06 0. 
6.0572e-05 -7.83e-06 0. 
8.94338e-05 -7.83e-06 0. 
6.05938e-05 -7.74e-06 0. 
8.94379e-05 -7.74e-06 0. 
6.0563e-05 -7.65e-06 0. 
6.057e-05 -7.67041e-06 0. 
8.94487e-05 -7.65e-06 0. 
6.05467e-05 -7.56e-06 0. 
8.946e-05 -7.57165e-06 0. 
8.94617e-05 -7.56e-06 0. 
[...]
POINT_DATA 2011
SCALARS Coverage0 float 1
LOOKUP_TABLE default
0.309939
0.309939
0.303002
0.338113
0.338313
0.358104
0.345685
0.328702
0.32728
0.315164
0.329536
0.32398
0.333611
0.319052
0.354799
0.338847
0.346954
0.35463
0.336112
0.338879
0.314152
0.302573
0.328712
0.33502
0.323051
0.339882
0.336251
0.333522
0.315014
0.303653
0.330102
0.34961
0.343471
0.368138
0.371623
0.323618
0.335219
0.319947
0.321121
0.357934
0.344168
0.359194
0.352355
0.324503
0.316156
0.322026
0.318895
0.334294
0.349126
0.318843
0.303964
0.304191
0.344523
0.336992
0.318969
0.333667
0.31756
0.34153
0.3389
0.331455
0.330921
0.31696
0.335358
0.350065
0.34556
0.319477
0.326927
0.344752
0.327201
0.334214
0.330245
0.331413
0.329004
0.32694
0.348502
0.360588
0.334383
0.323895
0.336753
0.310097
0.329138
0.364814
0.371058
0.347389
0.362698
0.324149
0.313342
0.32398
0.349978
0.364111
0.331554
0.343184
0.352714
0.346065
0.327462
0.337412
0.307916
0.326097
0.350172
0.357388
0.329275
0.319889
0.340231
0.340506
0.332192
0.321126
0.339147
0.358692
0.342555
0.316727
0.326596
0.307092
0.3388
0.342508
0.32926
0.339982
0.347235
0.328543
0.342584
0.337563
0.321865
0.326113
0.34397
0.350925
0.337444
0.326631
0.343299
0.343643
0.344969
0.321927
0.308053
0.333717
0.34067
0.323504
0.342331
0.33912
0.318009
0.308809
0.312131
0.331857
0.350029
0.318666
0.314744
0.338083
0.325898
0.330656
0.330225
0.319856
0.32854
0.330935
0.363194
0.356628
0.330606
0.331231
0.323467
0.322163
0.322537
0.325934
0.330298
0.336488
0.339425
0.332931
0.332931
0.311298
0.311298
0.302001
0.314587
0.33563
0.338515
0.346472
0.332256
0.307113
0.308982
0.329479
0.312102
0.325491
0.293288
0.317857
0.323703
0.348219
0.309722
0.322051
0.311488
0.317597
0.306717
0.298217
0.297122
0.31405
0.314526
0.311586
0.307832
0.339078
0.322897
0.33036
0.322504
0.319417
0.31217
0.299095
0.283394
0.300246
0.317162
0.327231
0.330986
0.334546
0.315144
0.303611
0.313486
0.308969
0.292315
0.312829
0.327202
0.322508
0.316927
0.296452
0.315562
0.312374
0.302672
0.315515
0.33779
0.315637
0.312456
0.319022
0.330067
0.309623
0.2801
0.294221
0.303837
0.306279
0.309083
0.29191
0.330772
0.328108
0.296788
0.287261
0.2963
0.287514
0.298526
0.306246
0.329262
0.323413
0.290437
0.26911
0.280679
0.271216
0.283176
0.306737
0.32559
0.322088
0.311896
0.319426
0.303395
0.284945
0.296788
0.290519
0.307627
0.293894
0.296149
0.327035
0.295331
0.313918
0.308413
0.305233
0.269078
0.322875
0.288801
0.287231
0.287072
0.282583
0.279442
0.270951
0.308884
0.300726
0.292306
0.304788
0.303976
0.303976
0.292934
0.292934
0.277645
0.271049
0.246617
0.26381
0.284193
0.302308
0.272321
0.274328
0.271279
0.299705
0.300173
0.282615
0.266896
0.256079
0.287261
0.283631
0.290344
0.278473
0.279955
0.279615
0.272873
0.264577
0.286224
0.293717
0.302377
0.276482
0.27784
0.27784
0.307031
0.307031
0.217987
0.262348
0.294545
0.298911
0.2724
0.283661
0.298343
0.284513
0.298249
0.31423
0.317719
0.263065
0.251173
0.28576
0.276704
0.24838
0.237188
0.227698
0.324894
0.515808
0.637782
0.404504
0.515808
0.723367
0.849399
0.957278
0.90563
0.988912
0.943731
0.949808
0.603311
0.774493
0.0369598
1
0
0.954125
0.939478
0.694512
0.903359
0.896805
0.967423
0.832376
0.878791
0.919403
1
0.901547
0.990356
1
0.911223
0
1
1
0.825418
0.939592
1
0.914179
0.927842
0.982258
0.840556
0.840556
1
0.853431
0
0
1
0
0
1
0
0
1
0
0.73448
1
0.833325
1
0.833325
0
0.538986
0
1
1
1
0.8503
0.8503
0
0
0
0.8503
0
0.830655
0
0.830655
0.882585
0
0
1
1
0
0.825399
1
0.971308
1
1
1
1
0.814076
0
0.780912
1
1
0.780912
0
0
0.998851
0.998851
1
0.923811
0.998851
1
0.906719
1
0.923811
0.816031
0.816031
1
0.840833
0
0.761238
1
0.705289
1
1
0
0
0.82521
0
1
1
1
0.82521
1
0
0
0.918142
0
0
0.948913
0
0.991102
0.882526
0.948913
0
0
0.740568
0.991102
1
1
1
1
1
1
0
0.998359
0.998359
0.709543
0.998359
0
0
0.735662
1
1
1
1
0.735662
0
0
1
0
0
1
1
0
1
1
0.8475
0
0.8475
0.851521
1
1
1
1
0
1
1
1
1
1
0.825718
1
1
0.899761
0.899919
0.899919
0
0
0.899761
0.899919
0.737242
1
1
0.716775
1
1
0.716775
1
1
1
0
0
0
0.72257
0
0.72257
1
0
0.981253
0.981253
0.76376
1
0.671416
0.981253
0.76376
0
1
0
0
0
0
1
0.846666
0.846666
0
0.822033
0
0.818067
0
0.991968
0.991968
0.818067
1
1
0
0.991968
1
0
1
1
0
0
1
1
0
0
0.980693
0.980693
0
0
1
0.991941
0.980693
0.819888
0
0
1
0.798157
0
0
0.754776
0.754776
0
0
0.737987
1
1
0
1
1
1
1
1
1
0
0.870853
0.870853
1
0.99472
0.99472
0.870853
0.910573
0
0.99472
0.910573
1
1
0
0
0
1
1
0
1
0.987477
0.987477
1
1
0.987111
0.987111
0.987477
0.209745
0
0.820127
0.820127
0.987111
0
1
0.87847
0
0
1
1
0.87847
0.997519
0.997519
1
0
0.9632
0.9632
0.997519
1
0.863297
0.692132
0.692132
0.830905
0.9632
0.93756
0.783947
1
0.93756
0.698004
0.698004
0
0.977471
0.977471
1
1
0.765325
0.765325
0.51333
0.977471
0.951992
0.951992
0.951992
0.742045
0.765325
0.572746
0.951992
0.428394
0.428394
0.358753
0.36503
0.395364
0.367652
0.33149
0.366895
0.379451
0.361509
0.364028
0.357719
0.357201
0.379835
0.373159
0.360601
0.348104
0.367949
0.368309
0.362887
0.388787
0.357794
0.373012
0.360073
0.358226
0.359721
0.357758
0.379283
0.379234
0.366475
0.35784
0.376867
0.37638
0.374758
0.379174
0.363939
0.360435
0.347145
0.362219
0.358264
0.365162
0.379534
0.36914
0.362564
0.354182
0.372856
0.35763
0.367632
0.371476
0.35971
0.358985
0.363329
0.373105
0.37332
0.360237
0.350091
0.37926
0.376731
0.377097
0.360733
0.369225
0.365019
0.365964
0.372062
0.354058
0.344535
0.34997
0.366507
0.356586
0.360933
0.378277
0.368379
0.375207
0.374074
0.364893
0.369489
0.367998
0.367642
0.366889
0.357757
0.372065
0.35775
0.356846
0.344759
0.373822
0.376701
0.372578
0.381119
0.363243
0.367213
0.360417
0.375676
0.375395
0.365989
0.380763
0.365461
0.361127
0.383482
0.347561
0.363559
0.383028
0.346344
0.352663
0.358869
0.374738
0.360098
0.371433
0.362878
0.389784
0.383882
0.357369
0.35295
0.366722
0.360685
0.348549
0.367066
0.352665
0.358906
0.368768
0.386193
0.364988
0.349744
0.364673
0.369541
0.368438
0.362492
0.354325
0.372529
0.357235
0.36336
0.356383
0.367051
0.377998
0.359046
0.376635
0.366039
0.372901
0.376931
0.367543
0.372182
0.372864
0.381967
0.374359
0.365076
0.358897
0.36103
0.360042
0.361587
0.353808
0.359495
0.368195
0.37806
0.378287
0.354439
0.360144
0.385879
0.381281
0.354666
0.357894
0.370338
0.369107
0.366738
0.34375
0.359036
0.369048
0.369636
0.363261
0.370399
0.372758
0.366644
0.373205
0.370063
0.355308
0.379349
0.373205
0.37944
0.398503
0.371068
0.348235
0.348558
0.353066
0.364054
0.367776
0.368378
0.355119
0.364267
0.354823
0.380302
0.36535
0.381394
0.354616
0.343855
0.352327
0.360991
0.371528
0.366135
0.363986
0.35125
0.361698
0.372762
0.382
0.375784
0.363116
0.33994
0.356435
0.372791
0.376605
0.360838
0.363814
0.37278
0.36609
0.362316
0.381196
0.366736
0.356121
0.368415
0.360933
0.365208
0.354765
0.375072
0.374084
0.360198
0.367104
0.370424
0.371611
0.362748
0.362752
0.358146
0.351812
0.365622
0.39182
0.373547
0.3473
0.378716
0.372032
0.36961
0.371535
0.352769
0.354269
0.359744
0.371285
0.375106
0.376776
0.357098
0.358209
0.371967
0.372431
0.358024
0.35146
0.35048
0.358112
0.369573
0.345759
0.369015
0.375515
0.352199
0.393441
0.357543
0.361357
0.368262
0.379028
0.376022
0.366765
0.343442
0.378417
0.379794
0.357762
0.356894
0.384476
0.351807
0.374368
0.376181
0.378205
0.365594
0.375809
0.376915
0.355037
0.357235
0.367696
0.370345
0.380749
0.397377
0.363303
0.372735
0.367739
0.363499
0.34673
0.371063
0.369094
0.38057
0.363935
0.377092
0.382759
0.354557
0.367264
0.371336
0.35233
0.366201
0.37127
0.373252
0.348969
0.348548
0.36247
0.382765
0.371666
0.359262
0.363364
0.381148
0.353523
0.355813
0.377596
0.371531
0.370827
0.353068
0.377022
0.37359
0.358137
0.367771
0.371331
0.369325
0.35195
0.363339
0.378296
0.372122
0.359041
0.363644
0.352574
0.358538
0.354439
0.372667
0.3893
0.353252
0.362982
0.3658
0.362608
0.37382
0.379061
0.377568
0.369149
0.366526
0.358996
0.380597
0.370048
0.355267
0.349998
0.344862
0.359784
0.381799
0.372082
0.373214
0.35153
0.382834
0.360486
0.352072
0.386974
0.364214
0.357931
0.378679
0.365429
0.370231
0.368384
0.375581
0.371966
0.347037
0.372034
0.380508
0.366991
0.367835
0.370752
0.347674
0.369759
0.379442
0.376557
0.359212
0.348135
0.353496
0.365431
0.377934
0.368184
0.370829
0.362607
0.355409
0.372821
0.369065
0.357422
0.37982
0.372475
0.343455
0.353831
0.356561
0.340422
0.372966
0.392199
0.354161
0.365383
0.358053
0.385074
0.378538
0.364823
0.357056
0.360338
0.356358
0.372234
0.351938
0.361815
0.384823
0.35795
0.366517
0.352794
0.365339
0.373478
0.359979
0.367321
0.369126
0.355802
0.364606
0.36486
0.374823
0.35243
0.341375
0.362983
0.3671
0.351376
0.36492
0.355361
0.359655
0.381964
0.372787
0.392418
0.360976
0.363406
0.365449
0.359371
0.364225
0.362409
0.366486
0.376785
0.374808
0.376304
0.363401
0.353331
0.374093
0.368003
0.354522
0.362399
0.372075
0.375541
0.365479
0.353759
0.34652
0.364521
0.381718
0.366223
0.362367
0.363115
0.379982
0.365036
0.375003
0.369403
0.367561
0.366695
0.36427
0.373612
0.361675
0.367312
0.383083
0.372881
0.363043
0.354619
0.36356
0.371586
0.362227
0.35206
0.3627
0.351802
0.346465
0.382479
0.362665
0.351683
0.374714
0.37695
0.346885
0.358318
0.355534
0.379201
0.362402
0.370293
0.372635
0.377049
0.37363
0.366367
0.358903
0.36812
0.375884
0.364367
0.350907
0.354795
0.355726
0.372646
0.384845
0.368917
0.369009
0.350076
0.346239
0.375794
0.380425
0.372968
0.362871
0.362239
0.365932
0.385894
0.367207
0.359718
0.350363
0.356156
0.366364
0.369601
0.372363
0.364557
0.368874
0.388659
0.366836
0.363194
0.367338
0.367763
0.362615
0.385527
0.380309
0.367787
0.365761
0.377321
0.378035
0.361872
0.354649
0.363799
0.354858
0.349817
0.373259
0.374834
0.360405
0.364566
0.37018
0.376861
0.372151
0.347171
0.351968
0.360338
0.369737
0.381204
0.37073
0.369293
0.35491
0.361561
0.367447
0.386065
0.373417
0.365258
0.356237
0.358665
0.355501
0.349801
0.376472
0.3689
0.356431
0.358078
0.358507
0.374155
0.366194
0.373704
0.363432
0.375228
0.360646
0.368595
0.371515
0.370065
0.350855
0.37624
0.364015
0.355844
0.380343
0.363524
0.377631
0.385296
0.363902
0.376068
0.344435
0.340562
0.350145
0.374744
0.365494
0.36258
0.363367
0.366626
0.3833
0.368883
0.386643
0.367439
0.362168
0.370286
0.354313
0.365201
0.37735
0.361528
0.3655
0.379765
0.382739
0.354968
0.367227
0.374073
0.36294
0.363101
0.336771
0.345813
0.342991
0.37194
0.375602
0.363405
0.37945
0.368727
0.351105
0.370638
0.377879
0.379095
0.360412
0.370819
0.388084
0.37225
0.361064
0.382939
0.379686
0.364801
0.359428
0.362427
0.366347
0.378154
0.379116
0.356081
0.34537
0.354966
0.349905
0.384414
0.363726
0.37082
0.358958
0.361516
0.369101
0.368041
0.378895
0.374407
0.357289
0.367776
0.359615
0.350392
0.360959
0.366438
0.363043
0.358416
0.360004
0.359662
0.36752
0.378844
0.357614
0.382881
0.376371
0.376024
0.360986
0.361256
0.360628
0.399196
0.390899
0.382508
0.381146
0.375672
0.373068
0.359035
0.366013
0.365452
0.371948
0.364964
0.358027
0.371876
0.369261
0.357
0.37326
0.360424
0.369739
0.359477
0.359108
0.392328
0.355141
0.374648
0.376821
0.342844
0.373778
0.353356
0.369103
0.384349
0.381165
0.365073
0.375175
0.348191
0.357973
0.369549
0.369857
0.364965
0.369372
0.369145
0.37167
0.36322
0.366378
0.368251
0.380999
0.360338
0.357564
0.367208
0.370014
0.357896
0.371263
0.38554
0.371409
0.359065
0.371988
0.365187
0.355269
0.35489
0.375523
0.367938
0.344882
0.382705
0.363776
0.358685
0.356607
0.367827
0.35768
0.367596
0.367859
0.358696
0.369153
0.38092
0.360859
0.358353
0.358899
0.355703
0.367281
0.373373
0.3732
0.373746
0.358609
0.35268
0.372847
0.374723
0.372708
0.358704
0.367709
0.364254
0.384106
0.36755
0.353261
0.364747
0.357726
0.349368
0.382007
0.373721
0.355709
0.369596
0.363979
0.376397
0.362236
0.362856
0.35698
0.351642
0.357441
0.375294
0.356675
0.36931
0.386442
0.369091
0.367553
0.359062
0.371693
0.379262
0.35591
0.366203
0.359825
0.365916
0.368256
0.380497
0.377468
0.370396
0.366182
0.359106
0.364126
0.362097
0.373603
0.376606
0.366672
0.36263
0.383071
0.361426
0.361896
0.379248
0.38448
0.377872
0.363776
0.349823
0.367497
0.36947
0.367736
0.353851
0.374593
0.360589
0.366469
0.369175
0.35989
0.364457
0.350648
0.359631
0.355903
0.37347
0.378041
0.375372
0.355658
0.371702
0.369764
0.373594
0.383968
0.354722
0.374156
0.378628
0.37546
0.384496
0.356179
0.35258
0.350458
0.364376
0.386842
0.362281
0.380543
0.379732
0.383506
0.387001
0.363153
0.357791
0.37546
0.368775
0.369872
0.369846
0.36429
0.354754
0.370677
0.369805
0.373753
0.370136
0.375748
0.355331
0.362544
0.362783
0.36167
0.372654
0.365564
0.370948
0.374053
0.373892
0.361291
0.35929
0.361404
0.371885
0.365304
0.3607
0.35804
0.358712
0.377776
0.362002
0.370296
0.369583
0.378129
0.35724
0.36533
0.379691
0.358715
0.374103
0.362553
0.361167
0.35206
0.361163
0.376533
0.384339
0.361005
0.360406
0.368701
0.353108
0.359707
0.375717
0.36424
0.377132
0.369536
0.360091
0.359225
0.366853
0.37251
0.366853
0.363078
0.361648
0.374329
0.371706
0.373897
0.373454
0.349036
0.361037
0.377539
0.368025
0.371913
0.363324
0.385642
0.373978
0.365615
0.348429
0.352309
0.360778
0.369171
0.364914
0.371087
0.362819
0.364994
0.371938
0.368279
0.365694
0.347388
0.357875
0.352038
0.370019
0.396862
0.366103
0.346269
0.350305
0.368385
0.343295
0.359678
0.377655
0.37497
0.36823
0.379874
0.350629
0.343962
0.354421
0.374354
0.366389
0.380031
0.380225
0.375669
0.359027
0.354705
0.368942
0.356496
0.363805
0.387066
0.385797
0.361324
0.366678
0.358414
0.363852
0.36621
0.367508
0.359321
0.377848
0.365652
0.37384
0.369166
0.357426
0.358503
0.36907
0.350787
0.382939
0.37934
0.364517
0.368028
0.356683
0.364582
0.357273
0.388693
0.392374
0.372416
0.362179
0.361831
0.368114
0.371575
0.38384
0.351965
0.356531
0.359319
0.355319
0.341173
0.373663
0.359014
0.366582
0.390386
0.369602
0.34888
0.37295
0.380787
0.372875
0.357939
0.357951
0.371187
0.371184
0.375463
0.363539
0.373979
0.36889
0.370056
0.371875
0.350891
0.375098
0.372006
0.353908
0.364138
0.38888
0.370092
0.371108
0.371994
0.346021
0.344748
0.368706
0.370994
0.376305
0.364497
0.357437
0.363368
0.365299
0.365648
0.385675
0.374954
0.369794
0.363266
0.359151
0.370583
0.362633
0.376649
0.375566
0.374831
0.369098
0.370297
0.356429
0.356443
0.368587
0.36295
0.371988
0.383526
0.366095
0.392442
0.376058
0.368859
0.362006
0.343178
0.355102
0.365001
0.371189
0.366117
0.357424
0.361886
0.378243
0.356226
0.363833
0.358055
0.374838
0.367645
0.374245
0.364783
0.364586
0.359258
0.36603
0.364726
0.371858
0.376811
0.370554
0.37555
0.353403
0.37528
0.355414
0.375595
0.36925
0.350056
0.372377
0.370565
0.386409
0.355641
0.348307
0.365528
0.366672
0.361641
0.357924
0.370395
0.361595
0.353168
0.34818
0.382402
0.367569
0.348774
0.376032
0.360878
0.368389
0.362662
0.37745
0.369196
0.370981
0.355041
0.365588
0.367682
0.364302
0.38095
0.382859
0.364031
0.359339
0.359973
0.382249
0.367469
0.370494
0.356492
0.361075
0.366584
0.340052
0.362874
0.373742
0.361817
0.364346
0.367326
0.38056
0.389381
0.358686
0.375016
0.368133
0.367974
0.370868
0.363439
0.367188
0.356581
0.352309
0.347981
0.365809
0.359927
0.369582
0.380076
0.357363
0.361646
0.377796
0.356051
0.379402
0.347258
0.350794
0.371985
0.380758
0.366864
0.362178
0.360843
0.377789
0.374253
0.358756
0.373153
0.368355
0.358346
0.374739
0.373678
0.373508
0.377164
0.36146
0.351643
0.358655
0.363933
0.354871
0.365474
0.365536
0.396657
0.364292
0.358449
0.361031
0.351659
0.362824
0.367162
0.368266
0.365797
0.356144
0.353485
0.378566
0.359087
0.366546
0.376938
0.375098
0.359505
0.351937
0.366488
0.381249
0.380356
0.354987
0.366635
0.360525
0.367036
0.371004
0.356738
0.382537
0.365358
0.366359
0.374611
0.369751
0.351286
0.353795
0.362673
0.357552
0.371678
0.380689
0.375902
0.356314
0.370114
0.373117
0.375225
0.355279
0.360659
0.363203
0.359812
0.381162
0.361897
0.379277
0.349333
0.369272
0.364521
0.365857
0.381705
0.377095
0.364408
0.362348
0.353946
0.354511
0.371312
0.379622
0.377116
0.33916
0.371831
0.372388
0.359568
0.35092
0.368322
0.367381
0.376337
0.378189
0.359698
0.360298
0.364277
0.356399
0.356358
0.362649
0.356142
0.370777
0.365643
0.361785
0.37657
0.384394
0.364481
0.363424
0.358596
0.378023
0.395041
0.367669
0.338235
0.366968
0.364107
0.375933
0.364031
0.357426
0.372907
0.370818
0.350383
0.370208
0.371535
0.361775
0.372308
0.365327
0.369135
0.36696
0.369577
0.37079
0.367583
0.368929
0.371098
0.386271
0.372271
0.374144
0.345145
0.34535
0.388662
0.354711
0.349494
0.357513
0.386488
0.383492
0.365855
0.359443
0.368524
0.377081
0.366554
0.373156
0.379268
0.371157
0.384291
0.364085
0.348614
0.358176
0.382959
0.390736
0.346058
0.359754
0.373767
0.377949
0.35807
0.365704
0.378646
0.368126
0.368491
0.347705
0.356778
0.36171
0.377265
0.367179
0.361022
0.352471
0.365961
0.363932
0.371256
0.376749
0.356323
0.372385
0.359756
0.361437
0.36191
0.371446
0.365112
0.358753
SCALARS Coverage1 float 1
LOOKUP_TABLE default
0.19582
0.19582
0.209198
0.192285
0.188911
0.189934
0.189677
0.17963
0.190843
0.191068
0.191729
0.184883
0.175453
0.159343
0.153975
0.179432
0.190575
0.176307
0.185399
0.165388
0.170878
0.181556
0.17916
0.215211
0.187379
0.176516
0.182779
0.194009
0.207719
0.194594
0.168778
0.176312
0.18301
0.220991
0.192663
0.179885
0.190039
0.189044
0.204136
0.21278
0.205978
0.206609
0.178421
0.182085
0.183547
0.19999
0.199096
0.191494
0.187299
0.168473
0.193112
0.193807
0.192195
0.208562
0.18681
0.189594
0.181063
0.173097
0.169958
0.184905
0.204609
0.210274
0.202577
0.206714
0.188758
0.171688
0.177378
0.194657
0.188697
0.193907
0.190321
0.190448
0.196454
0.195237
0.195332
0.177933
0.174942
0.189916
0.207439
0.223418
0.20932
0.187877
0.19241
0.194791
0.177693
0.173206
0.190595
0.186793
0.192032
0.194972
0.184504
0.173923
0.166227
0.176868
0.205046
0.206866
0.196058
0.181622
0.187667
0.175785
0.189127
0.20736
0.210514
0.194249
0.189342
0.167769
0.173389
0.188585
0.178036
0.188523
0.19095
0.188201
0.187131
0.179515
0.186209
0.180635
0.165561
0.187414
0.182548
0.19378
0.209339
0.195914
0.180383
0.201942
0.195552
0.187044
0.182493
0.187278
0.194269
0.185368
0.20137
0.190485
0.178524
0.189067
0.197324
0.181686
0.202197
0.216023
0.192762
0.190069
0.19265
0.199462
0.199144
0.190807
0.180422
0.168756
0.185861
0.167417
0.186321
0.186547
0.17217
0.165507
0.185632
0.191681
0.205742
0.20696
0.186621
0.176657
0.180003
0.17827
0.179188
0.174958
0.174958
0.206257
0.206257
0.194241
0.190599
0.176634
0.200129
0.191986
0.176188
0.173167
0.174852
0.174508
0.175228
0.186308
0.18302
0.182026
0.197794
0.20173
0.18995
0.1868
0.2081
0.200323
0.213982
0.212542
0.200969
0.191696
0.199425
0.178031
0.156436
0.179577
0.183422
0.183019
0.21733
0.189579
0.189835
0.192071
0.190644
0.181345
0.186975
0.213215
0.207072
0.210399
0.194248
0.197818
0.200039
0.200672
0.191073
0.178915
0.176857
0.192762
0.212551
0.223182
0.21069
0.195062
0.201565
0.18761
0.173948
0.199044
0.195159
0.168804
0.196058
0.188973
0.192041
0.194591
0.168338
0.165024
0.180653
0.209018
0.188601
0.183321
0.187749
0.200555
0.1841
0.172632
0.19091
0.198019
0.195232
0.189624
0.197731
0.186453
0.17576
0.177989
0.189047
0.19186
0.17611
0.189446
0.210449
0.187964
0.17376
0.184666
0.187749
0.202397
0.192643
0.182656
0.185813
0.190538
0.190406
0.194639
0.191065
0.174793
0.18331
0.190321
0.205583
0.183689
0.155537
0.187444
0.188525
0.173515
0.168729
0.176487
0.182474
0.191896
0.192611
0.192611
0.170204
0.170204
0.196657
0.20367
0.214012
0.21537
0.174324
0.173922
0.183691
0.180122
0.201062
0.18566
0.171104
0.188394
0.181995
0.206455
0.200555
0.200848
0.176351
0.17827
0.206869
0.189645
0.172478
0.160381
0.161176
0.174988
0.1972
0.193842
0.193991
0.193991
0.193065
0.193065
0.219475
0.188883
0.191334
0.166039
0.163814
0.181541
0.164879
0.163282
0.210348
0.211389
0.183577
0.172563
0.184548
0.155141
0.160462
0.174188
0.17147
0.182974
0.204991
0.248286
0.314986
0.159266
0.248286
0.395777
0.60296
0
20.2672
0
0
25.6054
27.9731
0
0
1
0
0.0327326
0
10.4279
0
21.6554
341.878
0.058999
0
0
0
6.56884
44.9361
0
0
0
1
1
0
0.181594
0
0
0
0
0
0
0
0
0
0
1
0
0
1
0
1
1
1
0
0
0.0663076
0
0.0663076
1
0
1
1
1
1
0.0961438
0.0961438
0
0
1
0.0961438
0
3.16571
1
3.16571
0
0
0
1
1
0
0.0744414
1
0
1
1
0
1
0
0
0.0552487
1
1
0.0552487
0
0
0
0
1
21.5264
0
1
0
0
21.5264
2.4765
2.4765
1
0
1
0
0
0
0
1