# vtk DataFile Version 2.0
2D Surface
ASCII
DATASET UNSTRUCTURED_GRID
POINTS 3385 float
7.05724e-05 -4.725e-05 0. 
7.065e-05 -4.72605e-05 0. 
7.074e-05 -4.72592e-05 0. 
7.083e-05 -4.72577e-05 0. 
7.092e-05 -4.72595e-05 0. 
7.101e-05 -4.72574e-05 0. 
7.11e-05 -4.72658e-05 0. 
7.119e-05 -4.72718e-05 0. 
7.128e-05 -4.72684e-05 0. 
7.137e-05 -4.72606e-05 0. 
7.146e-05 -4.72608e-05 0. 
7.155e-05 -4.72696e-05 0. 
7.164e-05 -4.72805e-05 0. 
7.173e-05 -4.72807e-05 0. 
7.182e-05 -4.72758e-05 0. 
7.191e-05 -4.72737e-05 0. 
7.2e-05 -4.7274e-05 0. 
7.209e-05 -4.72789e-05 0. 
7.218e-05 -4.72776e-05 0. 
7.227e-05 -4.7277e-05 0. 
7.236e-05 -4.7271e-05 0. 
7.245e-05 -4.72803e-05 0. 
7.254e-05 -4.72887e-05 0. 
7.263e-05 -4.72937e-05 0. 
7.272e-05 -4.72916e-05 0. 
7.281e-05 -4.72837e-05 0. 
7.29e-05 -4.72848e-05 0. 
7.299e-05 -4.7285e-05 0. 
7.308e-05 -4.72886e-05 0. 
7.317e-05 -4.72914e-05 0. 
7.326e-05 -4.7295e-05 0. 
7.335e-05 -4.7299e-05 0. 
7.344e-05 -4.72912e-05 0. 
7.353e-05 -4.7285e-05 0. 
7.362e-05 -4.72858e-05 0. 
7.371e-05 -4.72881e-05 0. 
7.38e-05 -4.7291e-05 0. 
7.389e-05 -4.7288e-05 0. 
7.398e-05 -4.72849e-05 0. 
7.407e-05 -4.72818e-05 0. 
7.416e-05 -4.72837e-05 0. 
7.425e-05 -4.72812e-05 0. 
7.434e-05 -4.7283e-05 0. 
7.443e-05 -4.72878e-05 0. 
7.452e-05 -4.72826e-05 0. 
7.461e-05 -4.72781e-05 0. 
7.47e-05 -4.72844e-05 0. 
7.479e-05 -4.72889e-05 0. 
7.488e-05 -4.72944e-05 0. 
7.497e-05 -4.72944e-05 0. 
7.506e-05 -4.72942e-05 0. 
7.515e-05 -4.72937e-05 0. 
7.524e-05 -4.72915e-05 0. 
7.533e-05 -4.72956e-05 0. 
7.542e-05 -4.72957e-05 0. 
7.551e-05 -4.72991e-05 0. 
7.56e-05 -4.72956e-05 0. 
7.569e-05 -4.72972e-05 0. 
7.578e-05 -4.72907e-05 0. 
7.587e-05 -4.72799e-05 0. 
7.596e-05 -4.72825e-05 0. 
7.605e-05 -4.72855e-05 0. 
7.614e-05 -4.72848e-05 0. 
7.623e-05 -4.72801e-05 0. 
7.632e-05 -4.72829e-05 0. 
7.641e-05 -4.72806e-05 0. 
7.65e-05 -4.72744e-05 0. 
7.659e-05 -4.72788e-05 0. 
7.668e-05 -4.72767e-05 0. 
7.677e-05 -4.7283e-05 0. 
7.686e-05 -4.72808e-05 0. 
7.695e-05 -4.72818e-05 0. 
7.704e-05 -4.72772e-05 0. 
7.713e-05 -4.72719e-05 0. 
7.722e-05 -4.72773e-05 0. 
7.731e-05 -4.72784e-05 0. 
7.74e-05 -4.72731e-05 0. 
7.749e-05 -4.72749e-05 0. 
7.758e-05 -4.72779e-05 0. 
7.767e-05 -4.72763e-05 0. 
7.776e-05 -4.7282e-05 0. 
7.785e-05 -4.72819e-05 0. 
7.794e-05 -4.72691e-05 0. 
7.803e-05 -4.7263e-05 0. 
7.812e-05 -4.72592e-05 0. 
7.821e-05 -4.72608e-05 0. 
7.83e-05 -4.72597e-05 0. 
7.83638e-05 -4.725e-05 0. 
6.80619e-05 -4.716e-05 0. 
6.813e-05 -4.71624e-05 0. 
6.822e-05 -4.71662e-05 0. 
6.831e-05 -4.71715e-05 0. 
6.84e-05 -4.71709e-05 0. 
6.849e-05 -4.71761e-05 0. 
6.858e-05 -4.71823e-05 0. 
6.867e-05 -4.71828e-05 0. 
6.876e-05 -4.7188e-05 0. 
6.885e-05 -4.71959e-05 0. 
6.894e-05 -4.71955e-05 0. 
6.903e-05 -4.71965e-05 0. 
6.912e-05 -4.72019e-05 0. 
6.921e-05 -4.72025e-05 0. 
6.93e-05 -4.72031e-05 0. 
6.939e-05 -4.72156e-05 0. 
6.948e-05 -4.7216e-05 0. 
6.957e-05 -4.722e-05 0. 
6.966e-05 -4.72225e-05 0. 
6.975e-05 -4.72253e-05 0. 
6.984e-05 -4.72273e-05 0. 
6.993e-05 -4.72303e-05 0. 
7.002e-05 -4.72342e-05 0. 
7.011e-05 -4.72357e-05 0. 
7.02e-05 -4.72336e-05 0. 
7.029e-05 -4.72357e-05 0. 
7.038e-05 -4.72464e-05 0. 
7.047e-05 -4.72464e-05 0. 
7.056e-05 -4.72483e-05 0. 
7.839e-05 -4.7246e-05 0. 
7.848e-05 -4.72428e-05 0. 
7.857e-05 -4.72355e-05 0. 
7.866e-05 -4.72279e-05 0. 
7.875e-05 -4.72325e-05 0. 
7.884e-05 -4.72325e-05 0. 
7.893e-05 -4.72325e-05 0. 
7.902e-05 -4.72314e-05 0. 
7.911e-05 -4.72247e-05 0. 
7.92e-05 -4.72314e-05 0. 
7.929e-05 -4.72309e-05 0. 
7.938e-05 -4.72272e-05 0. 
7.947e-05 -4.72296e-05 0. 
7.956e-05 -4.72321e-05 0. 
7.965e-05 -4.72273e-05 0. 
7.974e-05 -4.72263e-05 0. 
7.983e-05 -4.72217e-05 0. 
7.992e-05 -4.72182e-05 0. 
8.001e-05 -4.7217e-05 0. 
8.01e-05 -4.72233e-05 0. 
8.019e-05 -4.72255e-05 0. 
8.028e-05 -4.72264e-05 0. 
8.037e-05 -4.72228e-05 0. 
8.046e-05 -4.72207e-05 0. 
8.055e-05 -4.72185e-05 0. 
8.064e-05 -4.72136e-05 0. 
8.073e-05 -4.72057e-05 0. 
8.082e-05 -4.72085e-05 0. 
8.091e-05 -4.72067e-05 0. 
8.1e-05 -4.71998e-05 0. 
8.109e-05 -4.72004e-05 0. 
8.118e-05 -4.72013e-05 0. 
8.127e-05 -4.7203e-05 0. 
8.136e-05 -4.71985e-05 0. 
8.145e-05 -4.71948e-05 0. 
8.154e-05 -4.71846e-05 0. 
8.163e-05 -4.71897e-05 0. 
8.172e-05 -4.71909e-05 0. 
8.181e-05 -4.71847e-05 0. 
8.19e-05 -4.71822e-05 0. 
8.199e-05 -4.71812e-05 0. 
8.208e-05 -4.71716e-05 0. 
8.217e-05 -4.7178e-05 0. 
8.226e-05 -4.71643e-05 0. 
8.235e-05 -4.71679e-05 0. 
8.244e-05 -4.71668e-05 0. 
8.253e-05 -4.71627e-05 0. 
8.262e-05 -4.71613e-05 0. 
8.271e-05 -4.71605e-05 0. 
8.27211e-05 -4.716e-05 0. 
6.64641e-05 -4.707e-05 0. 
6.651e-05 -4.70734e-05 0. 
6.66e-05 -4.70838e-05 0. 
6.669e-05 -4.70917e-05 0. 
6.678e-05 -4.70935e-05 0. 
6.687e-05 -4.70963e-05 0. 
6.696e-05 -4.70929e-05 0. 
6.705e-05 -4.70941e-05 0. 
6.714e-05 -4.70954e-05 0. 
6.723e-05 -4.71008e-05 0. 
6.732e-05 -4.71055e-05 0. 
6.741e-05 -4.71149e-05 0. 
6.75e-05 -4.71212e-05 0. 
6.759e-05 -4.71256e-05 0. 
6.768e-05 -4.71294e-05 0. 
6.777e-05 -4.71335e-05 0. 
6.786e-05 -4.71447e-05 0. 
6.795e-05 -4.71552e-05 0. 
6.804e-05 -4.71592e-05 0. 
8.28e-05 -4.71564e-05 0. 
8.289e-05 -4.71478e-05 0. 
8.298e-05 -4.71376e-05 0. 
8.307e-05 -4.71311e-05 0. 
8.316e-05 -4.7123e-05 0. 
8.325e-05 -4.71181e-05 0. 
8.334e-05 -4.71103e-05 0. 
8.343e-05 -4.71054e-05 0. 
8.352e-05 -4.70979e-05 0. 
8.361e-05 -4.7093e-05 0. 
8.37e-05 -4.70896e-05 0. 
8.379e-05 -4.70781e-05 0. 
8.388e-05 -4.7071e-05 0. 
8.39026e-05 -4.707e-05 0. 
6.51724e-05 -4.698e-05 0. 
6.525e-05 -4.69916e-05 0. 
6.534e-05 -4.69926e-05 0. 
6.543e-05 -4.70018e-05 0. 
6.552e-05 -4.70088e-05 0. 
6.561e-05 -4.70142e-05 0. 
6.57e-05 -4.70209e-05 0. 
6.579e-05 -4.70223e-05 0. 
6.588e-05 -4.70307e-05 0. 
6.597e-05 -4.7031e-05 0. 
6.606e-05 -4.70351e-05 0. 
6.615e-05 -4.70468e-05 0. 
6.624e-05 -4.7057e-05 0. 
6.633e-05 -4.70609e-05 0. 
6.642e-05 -4.70667e-05 0. 
8.397e-05 -4.70672e-05 0. 
8.406e-05 -4.70598e-05 0. 
8.415e-05 -4.70558e-05 0. 
8.424e-05 -4.70489e-05 0. 
8.433e-05 -4.70433e-05 0. 
8.442e-05 -4.70384e-05 0. 
8.451e-05 -4.70281e-05 0. 
8.46e-05 -4.70231e-05 0. 
8.469e-05 -4.70196e-05 0. 
8.478e-05 -4.7023e-05 0. 
8.487e-05 -4.70182e-05 0. 
8.496e-05 -4.70101e-05 0. 
8.505e-05 -4.69975e-05 0. 
8.514e-05 -4.69947e-05 0. 
8.523e-05 -4.69928e-05 0. 
8.532e-05 -4.69884e-05 0. 
8.541e-05 -4.69824e-05 0. 
8.54265e-05 -4.698e-05 0. 
6.39052e-05 -4.689e-05 0. 
6.399e-05 -4.68994e-05 0. 
6.408e-05 -4.6913e-05 0. 
6.417e-05 -4.69191e-05 0. 
6.426e-05 -4.69214e-05 0. 
6.435e-05 -4.69278e-05 0. 
6.444e-05 -4.69322e-05 0. 
6.453e-05 -4.69418e-05 0. 
6.462e-05 -4.69497e-05 0. 
6.471e-05 -4.69504e-05 0. 
6.48e-05 -4.69604e-05 0. 
6.489e-05 -4.69677e-05 0. 
6.498e-05 -4.69713e-05 0. 
6.507e-05 -4.69707e-05 0. 
6.516e-05 -4.69781e-05 0. 
8.55e-05 -4.69695e-05 0. 
8.559e-05 -4.69614e-05 0. 
8.568e-05 -4.69531e-05 0. 
8.577e-05 -4.69507e-05 0. 
8.586e-05 -4.69454e-05 0. 
8.595e-05 -4.69391e-05 0. 
8.604e-05 -4.69282e-05 0. 
8.613e-05 -4.69208e-05 0. 
8.622e-05 -4.69167e-05 0. 
8.631e-05 -4.69095e-05 0. 
8.64e-05 -4.69031e-05 0. 
8.649e-05 -4.68985e-05 0. 
8.65483e-05 -4.689e-05 0. 
6.28984e-05 -4.68e-05 0. 
6.291e-05 -4.68017e-05 0. 
6.3e-05 -4.68158e-05 0. 
6.309e-05 -4.68254e-05 0. 
6.318e-05 -4.68371e-05 0. 
6.327e-05 -4.6851e-05 0. 
6.336e-05 -4.68609e-05 0. 
6.345e-05 -4.68658e-05 0. 
6.354e-05 -4.68715e-05 0. 
6.363e-05 -4.68743e-05 0. 
6.372e-05 -4.68756e-05 0. 
6.381e-05 -4.6881e-05 0. 
6.39e-05 -4.68894e-05 0. 
8.658e-05 -4.68854e-05 0. 
8.667e-05 -4.68718e-05 0. 
8.676e-05 -4.68528e-05 0. 
8.685e-05 -4.68479e-05 0. 
8.694e-05 -4.68406e-05 0. 
8.703e-05 -4.68331e-05 0. 
8.712e-05 -4.68182e-05 0. 
8.721e-05 -4.68023e-05 0. 
8.72196e-05 -4.68e-05 0. 
6.24324e-05 -4.671e-05 0. 
6.246e-05 -4.67182e-05 0. 
6.255e-05 -4.67329e-05 0. 
6.264e-05 -4.67546e-05 0. 
6.273e-05 -4.677e-05 0. 
6.282e-05 -4.67887e-05 0. 
8.73e-05 -4.67807e-05 0. 
8.739e-05 -4.67625e-05 0. 
8.748e-05 -4.67464e-05 0. 
8.757e-05 -4.6724e-05 0. 
8.76138e-05 -4.671e-05 0. 
6.20802e-05 -4.662e-05 0. 
6.21e-05 -4.66393e-05 0. 
6.219e-05 -4.66392e-05 0. 
6.228e-05 -4.66833e-05 0. 
6.237e-05 -4.66914e-05 0. 
8.766e-05 -4.66952e-05 0. 
8.775e-05 -4.66679e-05 0. 
8.784e-05 -4.66327e-05 0. 
8.78634e-05 -4.662e-05 0. 
6.19887e-05 -4.653e-05 0. 
6.201e-05 -4.65513e-05 0. 
8.793e-05 -4.65837e-05 0. 
8.79834e-05 -4.653e-05 0. 
6.19407e-05 -4.644e-05 0. 
8.802e-05 -4.64758e-05 0. 
8.80442e-05 -4.644e-05 0. 
6.19328e-05 -4.635e-05 0. 
8.80621e-05 -4.635e-05 0. 
6.19311e-05 -4.626e-05 0. 
8.80635e-05 -4.626e-05 0. 
6.19301e-05 -4.617e-05 0. 
8.80652e-05 -4.617e-05 0. 
6.19279e-05 -4.608e-05 0. 
8.80648e-05 -4.608e-05 0. 
6.19271e-05 -4.599e-05 0. 
8.80655e-05 -4.599e-05 0. 
6.19266e-05 -4.59e-05 0. 
8.80658e-05 -4.59e-05 0. 
6.19238e-05 -4.581e-05 0. 
8.80644e-05 -4.581e-05 0. 
6.19211e-05 -4.572e-05 0. 
8.80656e-05 -4.572e-05 0. 
6.19195e-05 -4.563e-05 0. 
6.192e-05 -4.5658e-05 0. 
8.80633e-05 -4.563e-05 0. 
6.19176e-05 -4.554e-05 0. 
8.80653e-05 -4.554e-05 0. 
6.19186e-05 -4.545e-05 0. 
8.80636e-05 -4.545e-05 0. 
6.19172e-05 -4.536e-05 0. 
8.80657e-05 -4.536e-05 0. 
6.19163e-05 -4.527e-05 0. 
8.8065e-05 -4.527e-05 0. 
6.19139e-05 -4.518e-05 0. 
8.80678e-05 -4.518e-05 0. 
6.19133e-05 -4.509e-05 0. 
8.80653e-05 -4.509e-05 0. 
6.19117e-05 -4.5e-05 0. 
8.80677e-05 -4.5e-05 0. 
6.19114e-05 -4.491e-05 0. 
8.8069e-05 -4.491e-05 0. 
6.19107e-05 -4.482e-05 0. 
8.80689e-05 -4.482e-05 0. 
6.19076e-05 -4.473e-05 0. 
8.80696e-05 -4.473e-05 0. 
6.1908e-05 -4.464e-05 0. 
8.80723e-05 -4.464e-05 0. 
6.19072e-05 -4.455e-05 0. 
8.80724e-05 -4.455e-05 0. 
6.19073e-05 -4.446e-05 0. 
8.80749e-05 -4.446e-05 0. 
6.1904e-05 -4.437e-05 0. 
8.80747e-05 -4.437e-05 0. 
6.19021e-05 -4.428e-05 0. 
8.8077e-05 -4.428e-05 0. 
6.19041e-05 -4.419e-05 0. 
8.80783e-05 -4.419e-05 0. 
6.19029e-05 -4.41e-05 0. 
8.80764e-05 -4.41e-05 0. 
6.19022e-05 -4.401e-05 0. 
8.80792e-05 -4.401e-05 0. 
6.19033e-05 -4.392e-05 0. 
8.80803e-05 -4.392e-05 0. 
6.1905e-05 -4.383e-05 0. 
8.80821e-05 -4.383e-05 0. 
6.19069e-05 -4.374e-05 0. 
[...]
POINT_DATA 3385
SCALARS Coverage0 float 1
LOOKUP_TABLE default
0.157143
0.180199
0.178485
0.187339
0.204892
0.188041
0.181802
0.169627
0.183078
0.211918
0.19977
0.181487
0.197048
0.173743
0.172521
0.21532
0.183922
0.177585
0.163696
0.159574
0.171762
0.174297
0.196104
0.194741
0.191036
0.176682
0.192213
0.183206
0.183034
0.199684
0.186983
0.186917
0.170936
0.160976
0.184874
0.184622
0.188616
0.184651
0.17516
0.184991
0.173673
0.18963
0.186942
0.195725
0.190624
0.174469
0.200645
0.18537
0.153673
0.185115
0.190067
0.169179
0.167342
0.164789
0.206187
0.197844
0.163475
0.184435
0.182343
0.192106
0.198187
0.146197
0.188664
0.186824
0.169883
0.175297
0.19517
0.175694
0.188722
0.216059
0.182801
0.172829
0.166472
0.177764
0.178462
0.180123
0.175186
0.162161
0.159125
0.177357
0.174207
0.172169
0.195331
0.183698
0.187767
0.191553
0.207583
0.194436
0.173656
0.185583
0.182469
0.195866
0.188648
0.158155
0.154302
0.19684
0.186646
0.167029
0.184944
0.16263
0.15938
0.182868
0.19398
0.156597
0.162249
0.158941
0.162194
0.176344
0.170883
0.15565
0.174312
0.172556
0.190199
0.208402
0.20342
0.182398
0.157143
0.194436
0.177728
0.1853
0.167101
0.162233
0.185625
0.174163
0.164838
0.174247
0.197306
0.185607
0.166276
0.164186
0.181888
0.173054
0.171668
0.18736
0.183433
0.186495
0.187912
0.182099
0.167539
0.167151
0.179687
0.189756
0.167136
0.168784
0.175889
0.182493
0.168565
0.172118
0.164459
0.143073
0.165803
0.18031
0.152391
0.154613
0.152638
0.181819
0.189765
0.185626
0.191307
0.1962
0.200748
0.203003
0.193745
0.16986
0.178536
0.189299
0.189299
0.167287
0.169664
0.177953
0.18236
0.189019
0.205746
0.187463
0.167925
0.186288
0.204053
0.208479
0.20647
0.174046
0.188387
0.212124
0.20602
0.168705
0.167665
0.173656
0.191638
0.1811
0.190297
0.177799
0.150913
0.147478
0.18068
0.147001
0.147066
0.162324
0.172056
0.182883
0.166342
0.166342
0.186999
0.182399
0.176064
0.178167
0.183579
0.160753
0.177056
0.161167
0.180088
0.19861
0.216637
0.189478
0.176612
0.159615
0.167287
0.159718
0.166483
0.164718
0.172724
0.163194
0.178489
0.193048
0.193256
0.174688
0.154963
0.187137
0.176541
0.190204
0.178242
0.157485
0.187785
0.18168
0.18168
0.206175
0.188033
0.17987
0.162282
0.160726
0.155334
0.169487
0.162767
0.175572
0.206995
0.194107
0.171929
0.167352
0.194521
0.186999
0.181377
0.209969
0.182327
0.159859
0.20264
0.211807
0.187346
0.186762
0.174792
0.174829
0.172845
0.177648
0.177031
0.190208
0.190208
0.159367
0.175716
0.203926
0.203727
0.172548
0.174292
0.183504
0.187667
0.16973
0.169784
0.206175
0.177031
0.165223
0.178454
0.190505
0.197731
0.184754
0.161496
0.187718
0.187718
0.2223
0.2223
0.206868
0.171682
0.180673
0.188194
0.181404
0.165188
0.174989
0.177198
0.177198
0.244222
0.244222
0.222523
0.21061
0.210527
0.18959
0.206886
0.24245
0.24245
0.342875
0.342875
0.286508
0.326926
0.472634
0.480423
0.480423
0.807197
0.758959
0.885187
0.842243
0.887857
0.761136
0.689707
0.828186
0.745674
0.933854
0.892112
0.859945
0.742491
0.945245
0.838493
0.951877
0.768543
0.768543
0.971743
0.973406
0.864877
0.81028
0.74104
0.966808
0.983752
0.899441
0.983949
0.73657
0.982948
0.768507
0.976117
0.844964
0.836205
0.839377
0.893305
0.774919
0.935253
0.933296
0.471284
0.971518
0.937721
0.925366
0.913095
0.909747
0.906602
0.937298
0.92551
0.978475
0.76717
0.965828
0
0.917613
0.720307
0.783127
0.940797
0.800152
0.87487
0.983315
0.73989
1
0.711865
0.876782
0.381502
0.595777
0.777513
0.780201
0.712626
0.755908
0.67504
0.793211
0
0.85866
0.874058
0.886941
0.879382
0.997165
0.971442
0.424291
0.905237
0.877126
0.723348
0.934641
0.987981
0.773018
0
0.710803
0.924479
0.82552
0.932401
1
0.982293
0
1
0.857599
0.995768
1
0.530614
0.984795
0.687251
0.786778
0.969127
0.795314
0.937508
0.890649
0.953889
0.951753
0.879337
0.74834
0.906952
0.65018
0
0
0
0.79016
0.919262
0.824759
0.948892
0.9289
0
0.757646
0.985524
0.838631
0.871774
0.857782
0.976203
0.915881
0.920472
0.801352
0.977338
0
0.980026
0.999701
0.810411
0.87459
0.783062
0.747987
0.754281
0.981486
0.766506
0.977814
0.8619
0.785176
0.762859
0.877075
0.762859
0.846161
0.919247
0
0.831777
0.95847
1
0.925415
1
0.877212
1
0.855704
0.999048
0.849282
0.929673
0.873705
0.672831
0.955002
0.701754
0.976839
0.843777
0.910435
0.977078
0.951868
0.966366
0.813341
0.55319
0.805733
0.771353
0.805998
0.806875
0.777175
0
0.854675
0.843681
0.71161
0.918448
0.59714
0.833085
1
0.803831
0.833085
0.925084
0
0.649914
1
1
0.985872
0.833692
0.998525
0
0.833692
0.494196
0
0.924468
1
0.803285
1
0
0.849814
0.786316
0.731981
0.541822
0.820238
0
0.791155
0
0.971897
0
0.936783
0
0.844038
1
0.854921
0.872489
0.920375
0.57919
1
0.798709
0
0.973443
1
0.979982
1
0.953977
0.990551
0.960422
0.944245
0.809469
0.754034
0.607589
1
0.628383
0.964981
0.799323
0.628383
0.92355
0.726614
0
0.725902
0.725902
0.805512
0.690296
0.725902
0.909715
0.852472
1
0.847429
0.989911
1
0.839555
0
0.894735
0.91311
0.838098
0.869867
0.89471
0
0.913726
1
1
1
1
1
0
0
0.870236
0
0.902253
0
0.771043
0.771043
1
1
0
1
0.850224
1
0.811243
0.811243
1
1
0
0
0
0
1
1
1
1
1
1
0.991272
0.815048
0.886165
0.769314
0.917226
0.769314
0
0.976027
0
0
0.909929
0.923423
0.713731
0.752889
0.652481
0.752889
0
0.690647
0.652481
1
1
1
0.727707
0.727707
0.870151
0.777372
0.680753
1
0.826461
0.758535
0.758535
0.780976
0.758535
0.631594
0.787007
1
0
0.787007
0.998722
0
0.978212
0
0.99655
0
0
0.813986
1
0.773898
0.855868
0.974324
1
1
0.875563
1
0.673282
1
1
0.878187
0
0.814272
1
0.820911
0
0.875725
0
0
0.875725
1
0.779028
0
1
0.554812
0.584738
0.898225
0.898225
0
0
0.887853
0
1
0
0.811491
1
0.988576
0
1
1
0.863075
0
0.935197
0
0
1
0.935197
0.881954
1
0.858697
0.858697
0
0.848433
0.848433
0
0.848433
0.906106
0
0
0
0
0
1
0.919138
0
1
1
0
0
1
0.95875
0
0.823577
0.823577
0
0
0.823577
0.956648
0.861725
0.821095
0.821095
0.861725
0.887995
0.82205
1
0
0
1
0
0
0.817199
1
1
1
1
0
1
1
0
0
1
1
0.955884
1
0.94539
0.955884
0
0
1
1
1
0
1
1
0.871944
1
0.752149
1
0.752149
0
1
0
1
0
1
0
1
0
0.971645
0.986973
0
0.85604
0.971645
1
0
0
1
1
0
1
1
1
1
0
1
0.917174
1
0.862545
1
0.864736
0
1
1
0.864736
1
1
1
1
1
1
1
1
1
0.534195
0.914445
0.914445
1
1
1
0.534195
0.914445
0.840562
0.840562
1
1
0.840562
0.906059
1
0.906059
0.973618
1
1
0
0
0
1
0
0
1
1
0
0.979686
0.979686
1
1
1
0.696531
0.696531
0.979686
1
1
0.866302
1
0.868902
1
0.866302
1
1
1
1
0.868902
1
1
1
1
0
0
1
0
1
0
0
1
0
0.767232
0
0.893284
0.893284
0
0.919245
0
0
0.702509
1
0.702509
0
1
0.799032
1
0.0914204
0.799032
1
1
1
0
0
1
0
0.0758835
1
1
0
0
1
1
0
1
1
1
1
0
1
0
0.76184
1
0
0.76184
0.769314
0
1
1
1
1
0
1
0
0
1
0.85139
0.85139
0
1
0.778617
0.85139
1
1
0.995371
0.778276
0.778276
0
0
0.995371
1
0
1
1
0
0
0
1
1
1
0
1
0.772538
0
0
0.772538
0
0
0
0.977549
0.977549
0
0
1
1
0
0.977549
0
1
1
0
1
1
1
1
0
0
1
0
1
0
1
0
0
0
0.888438
0
0
0
0
0
0
0
0
0
0
0
0
0.962628
0.962628
0
0
0
0.962628
0
1
1
1
0
1
0
0.862782
0.862782
1
0.812127
0.838351
0.862782
1
0
1
0.812127
0.946459
0.946459
0
0
0.988177
0.988177
0.946459
0.150041
0
0.894629
0.988177
0
1
1
1
1
0.894629
0
0
0.964755
0.964755
0
0
0
1
0.964755
1
1
1
1
0.820118
0.820118
1
1
1
1
1
1
0.820118
1
1
1
0
1
0
1
1
0
0
1
1
0
0
0
0
0.974121
0.974121
0
0
0
0.974121
0.821536
0
0
0
0
1
0.821536
1
1
1
1
0
1
0.981776
0.981776
1
0.747383
0.747383
0.981776
1
1
1
1
1
1
1
0.950557
0.950557
1
0.687365
0.950557
1
1
1
1
1
0.687365
1
0
1
1
0.990511
0.990511
1
1
0.847934
0.990511
1
0.858803
0
0.849419
0
0
0.849419
1
0
0
0
0.991872
0.991872
0
1
0
1
0.991872
0.845726
1
0.988734
0.988734
0.845726
0.840355
1
1
1
0
0.988734
1
1
0
1
1
0
1
0
0
0
0
0
0.829625
0.829625
0
0
1
0
0.829625
0
1
0
0
0
1
0
0
0
1
1
1
0
1
0.800345
0.800345
1
0.753588
0.753588
0.800345
0
0.717202
1
0.659273
0.693484
0.824095
0.892484
0.824095
0
0
1
0.892484
1
1
0
0
0
1
1
0.817276
0.817276
0.978324
1
0.902937
1
1
0.902937
0
0
0
1
0
1
0
0
0
1
0
1
0
1
1
0
1
0
0
0
1
0
1
1
0
0
0
1
0.768675
0
0.788437
0
0
1
0
0
1
1
1
1
1
1
1
1
1
0.637889
0.637889
0
1
0
0.637889
0.809838
0.809838
0
1
1
1
0
0
0
0.739103
0.739103
1
1
0.807464
0.739103
0.724544
0.884946
0.765836
0.807464
0
0
0.845265
0.942309
0.942309
0.955207
0
1
0
0.845265
0.942309
0.955207
0.744902
0.744902
1
0.744902
0.788526
1
0.788526
0.610146
1
0.610146
1
1
1
1
1
1
1
1
0
1
1
1
1
1
1
0
1
0
1
0.891277
0.891277
0
0.891277
1
0
1
1
1
1
0
0.770176
0.770176
0
0.980857
0.980857
0.770176
1
0
0
0.365428
0.365428
0.980857
1
1
1
0
1
1
1
1
0
0.95053
0.95053
1
0.920195
0.95053
1
1
0
0
1
0
0
1
1
1
1
0
1
0
1
1
1
1
0
1
0.923468
0.923468
1
1
0.964979
0.964979
0.923468
0
1
1
0.882364
0.348719
0.964979
0
0
1
0.723546
0.994966
0.994966
0.852049
0.852049
0.994966
0
0
0
0.853622
1
1
0
0
0
0.857187
0
0.857187
1
1
0
0
0
1
1
1
0.964239
0.964239
0.924942
0
1
1
1
1
0.964239
0.924942
0
0.797902
1
0
0
0
0
0
1
0
0
1
1
0
0
0.837033
1
1
0.843445
0.843445
1
1
1
0
0
1
0.942962
0.942962
0
1
1
0.942962
0
0
1
0.831974
0
0.874216
0.874216
0
0
0
1
1
1
0
1
0
1
0.920763
0.920763
0.910805
1
1
0
0.920763
1
1
1
0
0
1
0.752466
0.994856
0.994856
0
0
0
0
0.862873
0.752466
0.994856
0
0
0
0
0.862873
0
0
0
1
0.975555
0.975555
0
1
0.975555
0.558945
1
0
0.558945
0
0
0.763702
0.883764
0.883764
0.883764
0
0.945536
0.883764
1
0
0
0.944395
0.944395
1
0
1
1
1
0
1
1
0
1
1
0.762541
1
1
0.810261
0.810261
1
1
0
0
1
0.990293
0.990293
1
1
0.990293
0
1
1
0
1
1
1
0.949868
0.949868
1
0.676982
0.676982
0.949868
1
1
0.664713
0
0
1
0
0
0.880239
0.880239
1
1
0
0
1
0
0
1
0
1
0.833441
0
0.893401
0.893401
1
1
1
0
1
1
1
0
0
1
1
1
0
1
1
0
0
0.897913
0.897913
0
1
0.699853
0.897913
0.637274
0
0.699853
0.637274
0
0
0
0.847207
1
1
0.847207
1
0
0.993658
0.993658
0
0.587298
0.993658
0
0
0.744077
0
0
0.8114
0.8114
0
1
0
0
1
0
1
0
0
1
0
0
1
0
1
0
1
1
0.937136
0.937136
0
1
0.937136
0.762194
0.762194
1
1
1
1
0
0.979154
0.979154
0.931451
0.931451
1
0
1
1
1
0.805151
0.979154
0.931451
1
1
1
0
0
0
0
0
0
0
1
1
1
1
0
1
1
0
1
0
1
1
0
0.81734
0
0
0
1
0.742773
0
0
0
1
1
0.691194
0
0.977188
0.977188
0
0.648796
0.691194
0
0.977188
1
1
0
0
0
1
1
1
0.714762
1
1
1
1
1
1
0.990246
0.990246
1
1
0.990246
0.736799
0
0.85432
1
0.898311
0.898311
1
1
0
0
0
0
0.702946
0.702946
0
1
1
1
0
0.702946
1
0
0
0.602296
0.602296
0
1
0
0
0.602296
0.984568
0
0
0.89686
0.89686
0.984568
0
0
0
0
0
0
0.89686
1
1
1
1
1
1
0
1
1
0
0
1
1
0
0
0
0.854851
1
1
1
1
1
0.854851
0
0
1
0
0
1
1
0
1
1
0.981276
0.981276
0.944107
1
0
0.981276
0.944107
0.672719
1
1
1
0
1
1
0
1
1
1
1
1
1
0.872403
0.872403
1
1
0.742411
0.818569
0.872403
1
1
1
0
0
0
0.673107
0.673107
1
1
1
1
1
0.991875
0.991875
1
1
1
0.991875
0.38443
0.751148
0
0.768747
0
0.603749
0
0.895201
0.895201
0.603749
0.768524
0
0.765246
0.895201
1
0
0
1
0
0.741607
0.741607
0.898209
0
1
0.741607
0.898209
0
0
1
1
0
1
0
0
0.989058
0.989058
0.965868
0.965868
0
1
0.989058
0.965868
0.648125
0.648125
1
1
1
1
1
1
1
1
0.753347
0.753347
1
1
0
0.984275
0.984275
0.753347
0.502218
0.502218
0.679167
0.984275
0
0
0
0
1
0.679167
0
0
0
0
0.998886
0.998886
0.998886
0.721197
0
0
0.998886
0.721197
0.791986
1
1
0
0
1
1
0.857385
0
0.953736
0.953736
0.953736
0.863827
1
0
0
0.953736
1
1
0
0
0
0
1
0.972694
0.972694
0.972694
0.93262
0
1
0.972694
0.855014
1
0.915341
0.706876
0.706876
0.767386
0.756867
0.756867
0.915341
0.706876
0.767386
0.916193
0.739222
0.785473
1
1
0.739222
1
1
1
0
0.778238
0.778238
0.955581
0.955581
1
0.808499
0.808499
0.0109621
0.778238
0.955581
0.726682
0.726682
1
0.852135
0
0.99522
0.99522
0.822614
0.75881
0.75881
0.406616
0.99522
0
0.75881
0.596218
0.679141
0.375409
0.372576
0.376212
0.360649
0.366875
0.344087
0.35305
0.38004
0.36826
0.38515
0.375818
0.328044
0.364906
0.389006
0.367597
0.361692
0.371309
0.37422
0.368726
0.371757
0.36074
0.376105
0.373838
0.374171
0.367915
0.358797
0.354981
0.371617
0.374013
0.367692
0.370488
0.359773
0.349693
0.361841
0.388874
0.371032
0.36
0.370339
0.359641
0.357197
0.374751
0.365772
0.371632
0.376351
0.37947
0.369762
0.367138
0.391438
0.37489
0.33925
0.362327
0.370293
0.361734
0.368464
0.368566
0.377857
0.369799
0.376571
0.350463
0.358024
0.374939
0.356887
0.369664
0.375072
0.384566
0.35987
0.332667
0.349634
0.373709
0.367287
0.361456
0.348443
0.363261
0.363838
0.377297
0.389393
0.3683
0.363577
0.35706
0.392076
0.367215
0.373353
0.36083
0.365499
0.36661
0.385101
0.369572
0.373594
0.35196
0.338358
0.362995
0.37463
0.368509
0.362765
0.370702
0.363013
0.363277
0.374243
0.375419
0.361653
0.372383
0.371086
0.396194
0.370916
0.365166
0.382652
0.365242
0.361887
0.379276
0.356848
0.366772
0.386609
0.361909
0.35593
0.369628
0.360818
0.365738
0.360298
0.377447
0.362365
0.374619
0.355461
0.351364
0.373428
0.379327
0.382366
0.39566
0.361617
0.361981
0.357195
0.354756
0.369646
0.370364
0.364425
0.387765
0.39528
0.358126
0.358714
0.350051
0.364013
0.37617
0.367973
0.37547
0.355503
0.363211
0.371692
0.343766
0.356871
0.373488
0.366514
0.371779
0.357081
0.341322
0.366293
0.375673
0.359533
0.375275
0.372714
0.349723
0.3594
0.369991
0.370202
0.372711
0.367856
0.352827
0.372483
0.382359
0.378618
0.3671
0.344734
0.333397
0.362023
0.379151
0.367342
0.366532
0.361027
0.352601
0.353435
0.371566
0.379242
0.375235
0.386839
0.372062
0.361121
0.358597
0.375506
0.37477
0.379241
0.365176
0.362738
0.38575
0.383953
0.365177
0.3819
0.3517
0.356578
0.355743
0.367738
0.374661
0.35319
0.369003
0.379021
0.394036
0.373023
0.350802
0.352284
0.369611
0.376914
0.354571
0.36913
0.372673
0.372631
0.349369
0.364409
0.371665
0.368174
0.357619
0.35721
0.366565
0.382899
0.369329
0.358318
0.359909
0.347859
0.392003
0.365297
0.356485
0.359996
0.370694
0.379717
0.367442
0.36938
0.348197
0.358644
0.362751
0.365705
0.373241
0.368939
0.371647
0.354574
0.370743
0.376113
0.354558
0.366338
0.37694
0.371182
0.362155
0.355899
0.364437
0.382622
0.378653
0.352161
0.357381
0.371278
0.351828
0.371643
0.37727
0.362029
0.348522
0.372975
0.373334
0.357511
0.367313
0.34036
0.363149
0.374491
0.362591
0.364833
0.384114
0.360328
0.370882
0.354105
0.362329
0.359332
0.359801
0.362208
0.377421
0.355394
0.349523
0.36126
0.354411
0.364957
0.372034
0.371655
0.355451
0.367718
0.382785
0.374147
0.358493
0.3535
0.371475
0.360579
0.355607
0.342132
0.357135
0.366494
0.353044
0.365604
0.373642
0.356358
0.37959
0.365191
0.376883
0.394724
0.355594
0.365346
0.383585
0.369659
0.345974
0.364632
0.369117
0.368417
0.369023
0.369692
0.359206
0.372278
0.343496
0.346419
0.358522
0.378624
0.389152
0.38912
0.37408
0.357829
0.356318
0.367211
0.374899
0.376986
0.368631
0.355471
0.355687
0.370997
0.350583
0.369031
0.364793
0.360724
0.363818
0.37921
0.390107
0.362265
0.372904
0.359724
0.374825
0.370627
0.37167
0.365582
0.363992
0.352192
0.361773
0.381526
0.371669
0.367509
0.364548
0.372692
0.373629
0.360119
0.346677
0.370292
0.37431
0.361475
0.348495
0.363647
0.377966
0.361936
0.357273
0.349662
0.351489
0.356689
0.364831
0.377377
0.375521
0.37225
0.366939
0.363699
0.365508
0.376229
0.368354
0.369193
0.359482
0.370875
0.372552
0.362038
0.358028
0.376817
0.360859
0.364866
0.368008
0.362686
0.375994
0.387608
0.370217
0.355941
0.37631
0.3625
0.363919
0.352275
0.349901
0.352583
0.377373
0.370803
0.353818
0.370294
0.379264
0.358301
0.367984
0.376363
0.367955
0.355434
0.353744
0.364884
0.381584
0.367422
0.359853
0.349704
0.385462
0.363325
0.36747
0.359076
0.377128
0.383408
0.379999
0.377116
0.36717
0.352732
0.365042
0.356134
0.36484
0.367449
0.364806
0.382516
0.367144
0.368314
0.358217
0.362068
0.367937
0.376216
0.364064
0.371516
0.371298
0.36989
0.353457
0.384619
0.370035
0.362485
0.366785
0.361904
0.35068
0.379132
0.34537
0.345894
0.364785
0.348687
0.363135
0.38478
0.380452
0.36702
0.360633
0.360876
0.361636
0.388961
0.40348
0.392464
0.360189
0.342709
0.359578
0.369188
0.355458
0.354134
0.377625
0.379378
0.358114
0.374383
0.356778
0.384098
0.377134
0.361165
0.362462
0.353063
0.373102
0.372738
0.363533
0.364323
0.364198
0.364832
0.380421
0.345737
0.358157
0.373099
0.373594
0.375324
0.371022
0.340946
0.378031
0.364347
0.373352
0.379256
0.345645
0.362799
0.350327
0.355537
0.368006
0.382209
0.377766
0.359837
0.368494
0.359342
0.35205
0.37333
0.383055
0.372104
0.365027
0.385811
0.365599
0.363846
0.360605
0.353047
0.351305
0.367008
0.387357
0.363333
0.358398
0.361867
0.362729
0.35752
0.367098
0.36892
0.369625
0.377285
0.355965
0.362589
0.365879
0.360526
0.366253
0.368754
0.368917
0.36846
0.356878
0.354923
0.355484
0.357924
0.350284
0.366087
0.36422
0.371052
0.369658
0.370836
0.382953
0.372282
0.357043
0.343775
0.333816
0.365676
0.367273
0.377603
0.377308
0.353311
0.360368
0.388593
0.383103
0.357397
0.370329
0.356022
0.386532
0.382973
0.365188
0.366042
0.368442
0.366132
0.348907
0.334333
0.364461
0.375187
0.370207
0.375116
0.374414
0.375739
0.358854
0.367393
0.375757
0.359447
0.351534
0.357549
0.352741
0.36518
0.370807
0.376119
0.372273
0.376794
0.374324
0.372527
0.339423
0.375513
0.349747
0.364957
0.363332
0.350602
0.36344
0.367325
0.354354
0.36073
0.370685
0.357963
0.367339
0.374067
0.376906
0.377705
0.364381
0.37651
0.374344
0.366896
0.367075
0.356774
0.363349
0.379052
0.38069
0.378251
0.361105
0.354856
0.3576
0.368942
0.371844
0.382119
0.339452
0.340959
0.37151
0.37776
0.36855
0.372149
0.364283
0.363841
0.360161
0.382882
0.385001
0.361493
0.355295
0.381558
0.37673
0.369316
0.359356
0.354247
0.371158
0.361972
0.36148
0.363264
0.389702
0.360977
0.363709
0.351787
0.364351
0.352548
0.350268
0.375272
0.370981
0.360101
0.378937
0.38761
0.364489
0.358157
0.351687
0.386302
0.367135
0.375175
0.365193
0.324682
0.36585
0.361715
0.407859
0.394742
0.369623
0.365264
0.34723
0.359971
0.362936
0.371997
0.364948
0.37294
0.375198
0.335028
0.344727
0.371512
0.349405
0.378173
0.358407
0.351132
0.371916
0.380152
0.380066
0.364376
0.362845
0.366764
0.371074
0.381428
0.378331
0.366486
0.349755
0.3489
0.356098
0.370313
0.38147
0.346522
0.371884
0.355351
0.368933
0.367699
0.352715
0.367456
0.382808
0.382669
0.370239
0.348196
0.373288
0.371552
0.367562
0.348376
0.356772
0.380053
0.381265
0.364638
0.353894
0.367705
0.359947
0.375181
0.367039
0.373251
0.370194
0.364008
0.373337
0.375787
0.371718
0.368859
0.352021
0.355354
0.370328
0.37064
0.359934
0.367068
0.37467
0.368106
0.382945
0.363507
0.357449
0.379437
0.372439
0.358742
0.359965
0.372488
0.343453
0.374843
0.352807
0.368347
0.380618
0.346985
0.365837
0.370406
0.364035
0.367472
0.368534
0.341074
0.367593
0.376033
0.357382
0.366983
0.362102
0.35331
0.364129
0.370882
0.368917
0.369307
0.363235
0.350887
0.36775
0.348088
0.368047
0.353117
0.361811
0.400585
0.382816
0.35867
0.366137
0.373776
0.374234
0.382856
0.368997
0.3617
0.362059
0.350318
0.375411
0.361818
0.367168
0.364335
0.358479
0.377562
0.375056
0.378403
0.352063
0.356738
0.352717
0.366848
0.372155
0.382495
0.362022
0.372891
0.348264
0.374833
0.369283
0.362759
0.359875
0.370427
0.366828
0.339404
0.357076
0.379754
0.401438
0.364192
0.355834
0.357458
0.382635
0.378789
0.341203
0.36788
0.360042
0.364109
0.36865
0.360578
0.349382
0.378737
0.38029
0.373275
0.346592
0.367892
0.349267
0.34312
0.358201
0.358674
0.375236
0.385598
0.375687
0.361504
0.354743
0.363848
0.378251
0.369094
0.373129
0.362419
0.37393
0.365491
0.357935
0.38568
0.36933
0.352382
0.344862
0.373277
0.373262
0.362708
0.361875
0.367714
0.374141
0.363339
0.361651
0.378648
0.400225
0.375256
0.358773
0.34746
0.368914
0.36806
0.357238
0.355062
0.357595
0.369809
0.379755
0.359889
0.345374
0.359247
0.370537
0.369396
0.393628
0.381278
0.346
0.369114
0.353831
0.379957
0.367041
0.366248
0.372704
0.349985
0.361884
0.35665
0.365109
0.36568
0.364335
0.367059
0.377368
0.379136
0.366303
0.346238
0.363902
0.367141
0.386336
0.379955
0.361682
0.354834
0.365417
0.381068
0.367993
0.381102
0.363842
0.36035
0.361027
0.37943
0.361151
0.379004
0.378878
0.3439
0.363839
0.355509
0.373181
0.37755
0.375931
0.389052
0.36674
0.360166
0.368557
0.362696
0.351309
0.357139
0.3623
0.37204
0.368151
0.357918
0.35006
0.371891
0.359229
0.352404
0.365237
0.376472
0.375636
0.357719
0.373558
0.368967
0.352982
0.360149
0.36482
0.371312
0.357331
0.369539
0.355152
0.376365
0.365776
0.361242
0.378359
0.371266
0.380708
0.369549
0.355254
0.357138
0.367029
0.374822
0.372172
0.370977
0.366462
0.357626
0.374113
0.38569
0.370907
0.360117
0.355816
0.360494
0.344303
0.353673
0.374462
0.35869
0.385156
0.364938
0.343211
0.359134
0.367282
0.355294
0.372445
0.370297
0.381492
0.375708
0.379955
0.356773
0.377431
0.381053