# vtk DataFile Version 2.0
2D Surface
ASCII
DATASET UNSTRUCTURED_GRID
POINTS 2103 float
7.20196e-05 -1.215e-05 0. 
7.209e-05 -1.21536e-05 0. 
7.218e-05 -1.21561e-05 0. 
7.227e-05 -1.21529e-05 0. 
7.236e-05 -1.21552e-05 0. 
7.245e-05 -1.21555e-05 0. 
7.254e-05 -1.21551e-05 0. 
7.263e-05 -1.21588e-05 0. 
7.272e-05 -1.2159e-05 0. 
7.281e-05 -1.21604e-05 0. 
7.29e-05 -1.21607e-05 0. 
7.299e-05 -1.21646e-05 0. 
7.308e-05 -1.21701e-05 0. 
7.317e-05 -1.21736e-05 0. 
7.326e-05 -1.21732e-05 0. 
7.335e-05 -1.21761e-05 0. 
7.344e-05 -1.21702e-05 0. 
7.353e-05 -1.21657e-05 0. 
7.362e-05 -1.21726e-05 0. 
7.371e-05 -1.21796e-05 0. 
7.38e-05 -1.2179e-05 0. 
7.389e-05 -1.21789e-05 0. 
7.398e-05 -1.21767e-05 0. 
7.407e-05 -1.21717e-05 0. 
7.416e-05 -1.21618e-05 0. 
7.425e-05 -1.21654e-05 0. 
7.434e-05 -1.21699e-05 0. 
7.443e-05 -1.21648e-05 0. 
7.452e-05 -1.21691e-05 0. 
7.461e-05 -1.21779e-05 0. 
7.47e-05 -1.21792e-05 0. 
7.479e-05 -1.21782e-05 0. 
7.488e-05 -1.21759e-05 0. 
7.497e-05 -1.2176e-05 0. 
7.506e-05 -1.21707e-05 0. 
7.515e-05 -1.2164e-05 0. 
7.524e-05 -1.21695e-05 0. 
7.533e-05 -1.2176e-05 0. 
7.542e-05 -1.21813e-05 0. 
7.551e-05 -1.21735e-05 0. 
7.56e-05 -1.21739e-05 0. 
7.569e-05 -1.2176e-05 0. 
7.578e-05 -1.21735e-05 0. 
7.587e-05 -1.21692e-05 0. 
7.596e-05 -1.21635e-05 0. 
7.605e-05 -1.21671e-05 0. 
7.614e-05 -1.21633e-05 0. 
7.623e-05 -1.21656e-05 0. 
7.632e-05 -1.21673e-05 0. 
7.641e-05 -1.21694e-05 0. 
7.65e-05 -1.21685e-05 0. 
7.659e-05 -1.21717e-05 0. 
7.668e-05 -1.21653e-05 0. 
7.677e-05 -1.21674e-05 0. 
7.686e-05 -1.21614e-05 0. 
7.695e-05 -1.21592e-05 0. 
7.704e-05 -1.21688e-05 0. 
7.713e-05 -1.21657e-05 0. 
7.722e-05 -1.21705e-05 0. 
7.731e-05 -1.21746e-05 0. 
7.74e-05 -1.21689e-05 0. 
7.749e-05 -1.21652e-05 0. 
7.758e-05 -1.21652e-05 0. 
7.767e-05 -1.21633e-05 0. 
7.776e-05 -1.21617e-05 0. 
7.785e-05 -1.21622e-05 0. 
7.794e-05 -1.21549e-05 0. 
7.79929e-05 -1.215e-05 0. 
7.83544e-05 -1.215e-05 0. 
7.839e-05 -1.21539e-05 0. 
7.84506e-05 -1.215e-05 0. 
6.69839e-05 -1.206e-05 0. 
6.705e-05 -1.2067e-05 0. 
6.714e-05 -1.20688e-05 0. 
6.723e-05 -1.20718e-05 0. 
6.732e-05 -1.20809e-05 0. 
6.741e-05 -1.20793e-05 0. 
6.75e-05 -1.20762e-05 0. 
6.759e-05 -1.20843e-05 0. 
6.768e-05 -1.20878e-05 0. 
6.777e-05 -1.20931e-05 0. 
6.786e-05 -1.20911e-05 0. 
6.795e-05 -1.21001e-05 0. 
6.804e-05 -1.21034e-05 0. 
6.813e-05 -1.21037e-05 0. 
6.822e-05 -1.21063e-05 0. 
6.831e-05 -1.21065e-05 0. 
6.84e-05 -1.21064e-05 0. 
6.849e-05 -1.21072e-05 0. 
6.858e-05 -1.21118e-05 0. 
6.867e-05 -1.21127e-05 0. 
6.876e-05 -1.2115e-05 0. 
6.885e-05 -1.21151e-05 0. 
6.894e-05 -1.21252e-05 0. 
6.903e-05 -1.21255e-05 0. 
6.912e-05 -1.2124e-05 0. 
6.921e-05 -1.21147e-05 0. 
6.93e-05 -1.21273e-05 0. 
6.939e-05 -1.21245e-05 0. 
6.948e-05 -1.21223e-05 0. 
6.957e-05 -1.21343e-05 0. 
6.966e-05 -1.21352e-05 0. 
6.975e-05 -1.21363e-05 0. 
6.984e-05 -1.2131e-05 0. 
6.993e-05 -1.21278e-05 0. 
7.002e-05 -1.21292e-05 0. 
7.011e-05 -1.21332e-05 0. 
7.02e-05 -1.21383e-05 0. 
7.029e-05 -1.21404e-05 0. 
7.038e-05 -1.21438e-05 0. 
7.047e-05 -1.21404e-05 0. 
7.056e-05 -1.21369e-05 0. 
7.065e-05 -1.21304e-05 0. 
7.074e-05 -1.21331e-05 0. 
7.083e-05 -1.21399e-05 0. 
7.092e-05 -1.21387e-05 0. 
7.101e-05 -1.21426e-05 0. 
7.11e-05 -1.21437e-05 0. 
7.119e-05 -1.21448e-05 0. 
7.128e-05 -1.21423e-05 0. 
7.137e-05 -1.21393e-05 0. 
7.146e-05 -1.21459e-05 0. 
7.155e-05 -1.21478e-05 0. 
7.164e-05 -1.2142e-05 0. 
7.173e-05 -1.21361e-05 0. 
7.182e-05 -1.21413e-05 0. 
7.191e-05 -1.21465e-05 0. 
7.2e-05 -1.2149e-05 0. 
7.803e-05 -1.21466e-05 0. 
7.812e-05 -1.2141e-05 0. 
7.821e-05 -1.21422e-05 0. 
7.83e-05 -1.21441e-05 0. 
7.848e-05 -1.21481e-05 0. 
7.857e-05 -1.21398e-05 0. 
7.866e-05 -1.21416e-05 0. 
7.875e-05 -1.21422e-05 0. 
7.884e-05 -1.21368e-05 0. 
7.893e-05 -1.21323e-05 0. 
7.902e-05 -1.21404e-05 0. 
7.911e-05 -1.21394e-05 0. 
7.92e-05 -1.21434e-05 0. 
7.929e-05 -1.21427e-05 0. 
7.938e-05 -1.21448e-05 0. 
7.947e-05 -1.21434e-05 0. 
7.956e-05 -1.21427e-05 0. 
7.965e-05 -1.21394e-05 0. 
7.974e-05 -1.21384e-05 0. 
7.983e-05 -1.21275e-05 0. 
7.992e-05 -1.21318e-05 0. 
8.001e-05 -1.21309e-05 0. 
8.01e-05 -1.2135e-05 0. 
8.019e-05 -1.21362e-05 0. 
8.028e-05 -1.21296e-05 0. 
8.037e-05 -1.21263e-05 0. 
8.046e-05 -1.21151e-05 0. 
8.055e-05 -1.2116e-05 0. 
8.064e-05 -1.21141e-05 0. 
8.073e-05 -1.21108e-05 0. 
8.082e-05 -1.21021e-05 0. 
8.091e-05 -1.21055e-05 0. 
8.1e-05 -1.20989e-05 0. 
8.109e-05 -1.20992e-05 0. 
8.118e-05 -1.2098e-05 0. 
8.127e-05 -1.20949e-05 0. 
8.136e-05 -1.20982e-05 0. 
8.145e-05 -1.20939e-05 0. 
8.154e-05 -1.20898e-05 0. 
8.163e-05 -1.20879e-05 0. 
8.172e-05 -1.20835e-05 0. 
8.181e-05 -1.20843e-05 0. 
8.19e-05 -1.2087e-05 0. 
8.199e-05 -1.20902e-05 0. 
8.208e-05 -1.20926e-05 0. 
8.217e-05 -1.20924e-05 0. 
8.226e-05 -1.20887e-05 0. 
8.235e-05 -1.20874e-05 0. 
8.244e-05 -1.20826e-05 0. 
8.253e-05 -1.20825e-05 0. 
8.262e-05 -1.20794e-05 0. 
8.271e-05 -1.20705e-05 0. 
8.28e-05 -1.20659e-05 0. 
8.28859e-05 -1.206e-05 0. 
6.44625e-05 -1.197e-05 0. 
6.453e-05 -1.19755e-05 0. 
6.462e-05 -1.19786e-05 0. 
6.471e-05 -1.19798e-05 0. 
6.48e-05 -1.19877e-05 0. 
6.489e-05 -1.19932e-05 0. 
6.498e-05 -1.19993e-05 0. 
6.507e-05 -1.20022e-05 0. 
6.516e-05 -1.20037e-05 0. 
6.525e-05 -1.20049e-05 0. 
6.534e-05 -1.20077e-05 0. 
6.543e-05 -1.20063e-05 0. 
6.552e-05 -1.20145e-05 0. 
6.561e-05 -1.20234e-05 0. 
6.57e-05 -1.20215e-05 0. 
6.579e-05 -1.20212e-05 0. 
6.588e-05 -1.20199e-05 0. 
6.597e-05 -1.20205e-05 0. 
6.606e-05 -1.20234e-05 0. 
6.615e-05 -1.20361e-05 0. 
6.624e-05 -1.2043e-05 0. 
6.633e-05 -1.20424e-05 0. 
6.642e-05 -1.20415e-05 0. 
6.651e-05 -1.20428e-05 0. 
6.66e-05 -1.20452e-05 0. 
6.669e-05 -1.2049e-05 0. 
6.678e-05 -1.20532e-05 0. 
6.687e-05 -1.20536e-05 0. 
6.696e-05 -1.20575e-05 0. 
8.289e-05 -1.20597e-05 0. 
8.298e-05 -1.20548e-05 0. 
8.307e-05 -1.20549e-05 0. 
8.316e-05 -1.20559e-05 0. 
8.325e-05 -1.205e-05 0. 
8.334e-05 -1.20513e-05 0. 
8.343e-05 -1.20497e-05 0. 
8.352e-05 -1.20466e-05 0. 
8.361e-05 -1.2048e-05 0. 
8.37e-05 -1.20434e-05 0. 
8.379e-05 -1.2037e-05 0. 
8.388e-05 -1.20396e-05 0. 
8.397e-05 -1.20348e-05 0. 
8.406e-05 -1.20297e-05 0. 
8.415e-05 -1.20268e-05 0. 
8.424e-05 -1.20246e-05 0. 
8.433e-05 -1.20227e-05 0. 
8.442e-05 -1.20189e-05 0. 
8.451e-05 -1.20206e-05 0. 
8.46e-05 -1.2018e-05 0. 
8.469e-05 -1.20086e-05 0. 
8.478e-05 -1.20016e-05 0. 
8.487e-05 -1.19953e-05 0. 
8.496e-05 -1.1989e-05 0. 
8.505e-05 -1.19838e-05 0. 
8.514e-05 -1.19829e-05 0. 
8.523e-05 -1.19771e-05 0. 
8.53e-05 -1.197e-05 0. 
8.53606e-05 -1.197e-05 0. 
8.541e-05 -1.19725e-05 0. 
8.55e-05 -1.19714e-05 0. 
8.559e-05 -1.19701e-05 0. 
8.55938e-05 -1.197e-05 0. 
6.30391e-05 -1.188e-05 0. 
6.309e-05 -1.18858e-05 0. 
6.318e-05 -1.1888e-05 0. 
6.327e-05 -1.18884e-05 0. 
6.336e-05 -1.18909e-05 0. 
6.345e-05 -1.18935e-05 0. 
6.354e-05 -1.18994e-05 0. 
6.363e-05 -1.19084e-05 0. 
6.372e-05 -1.19173e-05 0. 
6.381e-05 -1.19283e-05 0. 
6.39e-05 -1.19356e-05 0. 
6.399e-05 -1.19328e-05 0. 
6.408e-05 -1.19399e-05 0. 
6.417e-05 -1.19502e-05 0. 
6.426e-05 -1.19542e-05 0. 
6.435e-05 -1.19586e-05 0. 
6.444e-05 -1.19682e-05 0. 
8.532e-05 -1.1968e-05 0. 
8.568e-05 -1.19681e-05 0. 
8.577e-05 -1.19577e-05 0. 
8.586e-05 -1.19439e-05 0. 
8.595e-05 -1.19366e-05 0. 
8.604e-05 -1.19288e-05 0. 
8.613e-05 -1.19159e-05 0. 
8.622e-05 -1.19111e-05 0. 
8.631e-05 -1.19107e-05 0. 
8.64e-05 -1.1908e-05 0. 
8.649e-05 -1.18991e-05 0. 
8.658e-05 -1.18891e-05 0. 
8.667e-05 -1.18926e-05 0. 
8.676e-05 -1.189e-05 0. 
8.68287e-05 -1.188e-05 0. 
6.20154e-05 -1.179e-05 0. 
6.21e-05 -1.17968e-05 0. 
6.219e-05 -1.18049e-05 0. 
6.228e-05 -1.18159e-05 0. 
6.237e-05 -1.18244e-05 0. 
6.246e-05 -1.18349e-05 0. 
6.255e-05 -1.1842e-05 0. 
6.264e-05 -1.1851e-05 0. 
6.273e-05 -1.18579e-05 0. 
6.282e-05 -1.18643e-05 0. 
6.291e-05 -1.18674e-05 0. 
6.3e-05 -1.18756e-05 0. 
8.685e-05 -1.18769e-05 0. 
8.694e-05 -1.18695e-05 0. 
8.703e-05 -1.18624e-05 0. 
8.712e-05 -1.18581e-05 0. 
8.721e-05 -1.18537e-05 0. 
8.73e-05 -1.18509e-05 0. 
8.739e-05 -1.18499e-05 0. 
8.748e-05 -1.18444e-05 0. 
8.757e-05 -1.18391e-05 0. 
8.766e-05 -1.18357e-05 0. 
8.775e-05 -1.18291e-05 0. 
8.784e-05 -1.18144e-05 0. 
8.793e-05 -1.18004e-05 0. 
8.802e-05 -1.17935e-05 0. 
8.811e-05 -1.17913e-05 0. 
8.81413e-05 -1.179e-05 0. 
6.09984e-05 -1.17e-05 0. 
6.102e-05 -1.17072e-05 0. 
6.111e-05 -1.17122e-05 0. 
6.12e-05 -1.17309e-05 0. 
6.129e-05 -1.17335e-05 0. 
6.138e-05 -1.17425e-05 0. 
6.147e-05 -1.17489e-05 0. 
6.156e-05 -1.17589e-05 0. 
6.165e-05 -1.17625e-05 0. 
6.174e-05 -1.17628e-05 0. 
6.183e-05 -1.17733e-05 0. 
6.192e-05 -1.17812e-05 0. 
6.201e-05 -1.17896e-05 0. 
8.82e-05 -1.17876e-05 0. 
8.829e-05 -1.17791e-05 0. 
8.838e-05 -1.17693e-05 0. 
8.847e-05 -1.17619e-05 0. 
8.856e-05 -1.17509e-05 0. 
8.865e-05 -1.1743e-05 0. 
8.874e-05 -1.17335e-05 0. 
8.883e-05 -1.17203e-05 0. 
8.892e-05 -1.17194e-05 0. 
8.89903e-05 -1.17e-05 0. 
8.90328e-05 -1.17e-05 0. 
8.91e-05 -1.17161e-05 0. 
8.91163e-05 -1.17e-05 0. 
6.076e-05 -1.161e-05 0. 
6.084e-05 -1.16975e-05 0. 
6.093e-05 -1.16773e-05 0. 
8.901e-05 -1.16945e-05 0. 
8.919e-05 -1.1627e-05 0. 
8.9207e-05 -1.161e-05 0. 
6.07227e-05 -1.152e-05 0. 
6.075e-05 -1.15858e-05 0. 
8.92582e-05 -1.152e-05 0. 
6.07171e-05 -1.143e-05 0. 
8.92737e-05 -1.143e-05 0. 
6.07149e-05 -1.134e-05 0. 
8.92795e-05 -1.134e-05 0. 
6.07169e-05 -1.125e-05 0. 
8.928e-05 -1.13076e-05 0. 
8.92809e-05 -1.125e-05 0. 
6.07128e-05 -1.116e-05 0. 
8.928e-05 -1.12342e-05 0. 
8.92757e-05 -1.116e-05 0. 
6.0723e-05 -1.107e-05 0. 
8.928e-05 -1.10845e-05 0. 
8.92808e-05 -1.107e-05 0. 
6.07181e-05 -1.098e-05 0. 
8.92878e-05 -1.098e-05 0. 
6.07235e-05 -1.089e-05 0. 
8.92884e-05 -1.089e-05 0. 
6.07203e-05 -1.08e-05 0. 
8.92927e-05 -1.08e-05 0. 
6.0724e-05 -1.071e-05 0. 
8.92891e-05 -1.071e-05 0. 
6.07185e-05 -1.062e-05 0. 
8.92972e-05 -1.062e-05 0. 
6.07157e-05 -1.053e-05 0. 
8.92912e-05 -1.053e-05 0. 
6.07117e-05 -1.044e-05 0. 
8.92956e-05 -1.044e-05 0. 
6.07029e-05 -1.035e-05 0. 
8.92956e-05 -1.035e-05 0. 
6.06846e-05 -1.026e-05 0. 
8.92954e-05 -1.026e-05 0. 
[...]
POINT_DATA 2103
SCALARS Coverage0 float 1
LOOKUP_TABLE default
0.361327
0.317949
0.301775
0.332554
0.336598
0.316924
0.312812
0.329384
0.337062
0.320657
0.33351
0.357072
0.33774
0.307545
0.319326
0.316941
0.305023
0.305398
0.34207
0.3219
0.314667
0.326219
0.336313
0.33443
0.331439
0.308181
0.28984
0.328455
0.31849
0.322387
0.321923
0.320454
0.331953
0.337605
0.338604
0.351302
0.337824
0.343299
0.31773
0.297435
0.328337
0.315302
0.304467
0.299669
0.300628
0.305981
0.318374
0.329458
0.335081
0.330103
0.321347
0.311739
0.322756
0.317247
0.324107
0.33159
0.330379
0.318729
0.309371
0.326829
0.317069
0.312731
0.324609
0.328639
0.322868
0.316985
0.322858
0.328262
0.33278
0.33278
0.358536
0.281184
0.319402
0.321712
0.329661
0.348308
0.33404
0.324349
0.313585
0.289924
0.306891
0.305309
0.284817
0.291589
0.314238
0.315988
0.301074
0.291016
0.290157
0.311953
0.296325
0.295106
0.352492
0.309704
0.318412
0.296914
0.319368
0.32115
0.328214
0.321241
0.316591
0.326454
0.307643
0.341769
0.345276
0.327493
0.344109
0.285179
0.300107
0.316174
0.325058
0.342499
0.356657
0.336457
0.295442
0.294542
0.309144
0.337039
0.339613
0.313221
0.330629
0.310651
0.312982
0.353002
0.350914
0.323466
0.372432
0.361327
0.328262
0.324916
0.304937
0.302867
0.358536
0.315213
0.314708
0.327447
0.321965
0.304775
0.307845
0.325154
0.331757
0.337678
0.36195
0.328334
0.306353
0.318569
0.344008
0.317054
0.302407
0.318016
0.313356
0.305096
0.337814
0.335658
0.350906
0.35487
0.315836
0.312052
0.290176
0.288792
0.304537
0.308186
0.302135
0.327971
0.291457
0.294379
0.300882
0.306993
0.326044
0.306453
0.297188
0.264527
0.31195
0.326908
0.31517
0.310861
0.277672
0.292336
0.30057
0.307105
0.299879
0.294202
0.293737
0.281881
0.303237
0.302115
0.277037
0.280803
0.305598
0.279917
0.292221
0.30953
0.278937
0.282316
0.318131
0.29234
0.312273
0.313914
0.278243
0.28144
0.286551
0.280301
0.284512
0.280771
0.268767
0.300805
0.312711
0.313799
0.307424
0.282343
0.281184
0.294202
0.279876
0.281191
0.28661
0.287365
0.300158
0.321631
0.314347
0.307634
0.317853
0.296116
0.287012
0.308314
0.331807
0.301436
0.288873
0.291412
0.298106
0.289208
0.293267
0.319812
0.319277
0.326808
0.313282
0.298013
0.301575
0.283241
0.313813
0.313813
0.30997
0.291979
0.312533
0.312533
0.318365
0.292534
0.27837
0.286519
0.296001
0.29442
0.269925
0.2576
0.292374
0.298275
0.309071
0.308384
0.271551
0.288956
0.301076
0.307709
0.293737
0.313813
0.31365
0.279356
0.281876
0.282879
0.290432
0.26998
0.271884
0.277061
0.277611
0.281337
0.290413
0.26979
0.261573
0.266875
0.286423
0.246369
0.2672
0.266484
0.262062
0.280692
0.269842
0.272449
0.256145
0.259448
0.280883
0.318365
0.266875
0.30505
0.294366
0.263975
0.264356
0.273635
0.271526
0.284385
0.280571
0.281987
0.286286
0.282266
0.260051
0.262077
0.253614
0.253614
0.268863
0.268863
0.267967
0.260848
0.248771
0.270961
0.278876
0.283564
0.283521
0.275691
0.290539
0.300637
0.286423
0.291338
0.296731
0.257615
0.262646
0.284817
0.284434
0.263292
0.265367
0.279619
0.282116
0.282116
0.354551
0.354551
0.506176
0.298236
0.240746
0.282116
0.486341
0.486341
0.773851
0.506176
0.57573
0.962024
0.737693
0.997288
0.918134
0.892711
0.918134
0
0.833938
0
0.916397
0.923972
0.93931
0.93931
0.703261
0.819743
0
0.803256
0.896411
0.935221
0.962972
0.895855
0.951571
0.959296
0.840036
0.971911
0.842794
0.963872
0.912858
0.995148
0
0
0
0.956628
0.999591
0.910946
0.982229
0.901906
0.676065
0
0.890518
0.947403
0
0.842489
0
1
0.877084
1
1
0.996403
1
0
1
1
1
0.976278
1
0.900506
0.955275
0.896727
0.981037
0.770345
0.988686
0.835713
0.955212
1
1
0.947054
0
0
0.985148
1
0.958822
0
0.943983
0.874504
0.840938
0.81395
0.963147
0.963147
0.830889
0.963147
0.97626
0.830889
0
0.895999
0.97626
1
0
1
0
0.971817
0
0.77924
0.971817
0
0
0.90036
0.825533
0.89776
0.825533
0
0
1
0.89776
0
0
1
0
0
1
0
1
0.765062
1
0.990524
0.472516
1
1
1
1
0.927895
0.927895
0
1
1
0.927895
1
1
1
0.985634
0.985634
0
0
0
0
0.985634
0
1
1
1
0.851849
1
1
1
0
1
1
0
0.780943
0
1
1
0.780943
0
0
1
1
1
0.847818
0
0.793511
0.793511
1
1
0
0
0
1
1
1
0.786799
1
1
0
1
1
1
0.87086
0.87086
1
0.87086
0.860944
0
0.860944
0.778778
1
0.760936
1
1
0.760936
0
0
0.78835
0
1
1
1
0
1
0
0
1
0.874205
0
0
0.964018
1
0
0
0.994442
0.994442
0
0
0
0.701912
0.701912
0.994442
1
1
1
1
1
1
0
0.977608
0.977608
0
0
0.797519
0.977608
0
0
0
0.820146
0.820146
1
1
1
1
1
0
0
1
0
0
1
1
0
1
1
1
0.807817
0
0.807817
0.840613
1
1
0
1
1
0
1
1
1
1
1
1
0.805897
1
1
0.70926
0.70926
0.650756
0.650756
1
0
0
0
0.650756
0.413373
0.828282
1
1
0.809572
1
1
0.864396
1
1
1
0
0.863997
0
0.863997
1
0.761547
0.889318
0.889318
1
1
0.761547
0.889318
0
0
1
0
0
0
0
1
0.95136
0
0.741411
0
0.685054
0.685054
0
0.953345
0.953345
0
1
1
1
0.953345
1
0
1
1
1
0
1
1
0
0
0.586465
0.586465
0
0
0.910104
0.586465
0
0
0
0
0
0.910104
0.499852
0
0
0.499852
0.447775
0.447775
0
0
0.680365
1
1
0
0.680365
0
1
1
0
0.970767
0
0.905807
0.667851
1
0.992782
0.992782
0.727305
0.727305
0
0.992782
1
0
0
0
1
0.99955
0
1
0.667345
0.667345
1
0.887291
0.976738
0.976738
0.909838
0.914964
0.914964
0.887291
0.976738
0
0.772778
0.805607
1
1
0.772778
0.857823
1
0
0
0
0.77804
0.797337
0.797337
0.614603
0
0.846709
1
0.799868
0.799868
0
0.924322
0.924322
1
1
0.721891
0.721891
0.359141
0.924322
0.988188
0.988188
0.988188
0.637718
0.721891
0.577807
0.988188
0.478227
0.478227
0.363993
0.36569
0.349707
0.352887
0.37851
0.369288
0.364782
0.351781
0.383537
0.355823
0.36071
0.378107
0.364264
0.364207
0.359286
0.359053
0.378156
0.348726
0.337582
0.364008
0.387254
0.38246
0.374406
0.371362
0.365801
0.384634
0.368644
0.352037
0.351249
0.377787
0.363758
0.378749
0.383396
0.366563
0.340898
0.378512
0.384611
0.361411
0.369924
0.368544
0.387305
0.369561
0.356338
0.360547
0.36063
0.362178
0.364037
0.359931
0.376317
0.359809
0.380283
0.373485
0.369351
0.362275
0.36283
0.387599
0.385132
0.363346
0.353674
0.371533
0.380714
0.359592
0.362413
0.356149
0.365989
0.375353
0.364354
0.372537
0.354349
0.365515
0.370814
0.364832
0.364769
0.363513
0.37425
0.361347
0.374582
0.377006
0.357945
0.368533
0.368856
0.355129
0.372333
0.365851
0.382053
0.364838
0.353422
0.350307
0.374978
0.359359
0.364701
0.391561
0.351341
0.380225
0.3663
0.363832
0.366504
0.357141
0.377705
0.374209
0.364887
0.363676
0.369934
0.352385
0.356544
0.364249
0.362662
0.361345
0.356311
0.345723
0.345751
0.363175
0.371919
0.353815
0.362438
0.351239
0.358718
0.383713
0.375911
0.358852
0.382648
0.379835
0.358962
0.385504
0.362799
0.355661
0.378211
0.363972
0.370552
0.352844
0.36354
0.37545
0.376955
0.373033
0.360281
0.373882
0.377949
0.365241
0.366387
0.374638
0.381846
0.377591
0.348683
0.356414
0.345104
0.373807
0.38605
0.379853
0.356685
0.36589
0.359344
0.365946
0.364797
0.361515
0.364596
0.383289
0.350901
0.358892
0.352484
0.356975
0.380498
0.378804
0.364157
0.374395
0.342743
0.370494
0.384617
0.378498
0.360476
0.365012
0.360302
0.368429
0.377101
0.371018
0.380248
0.360301
0.355177
0.368426
0.359067
0.373745
0.369231
0.367443
0.366481
0.384298
0.366104
0.366401
0.373731
0.352982
0.36317
0.343256
0.380737
0.371949
0.362193
0.372388
0.371161
0.356471
0.363609
0.365422
0.374275
0.369371
0.390096
0.365592
0.358449
0.350629
0.35374
0.357443
0.364146
0.361593
0.351611
0.381369
0.36121
0.365699
0.361188
0.362987
0.384494
0.380111
0.360814
0.376349
0.365283
0.341138
0.382891
0.373124
0.371369
0.363207
0.357085
0.376127
0.366148
0.353546
0.362338
0.353611
0.368544
0.37169
0.359506
0.37849
0.354413
0.356737
0.355405
0.379986
0.375896
0.348784
0.360438
0.353465
0.372872
0.398672
0.37815
0.371488
0.372107
0.364014
0.370847
0.35685
0.369552
0.361316
0.36022
0.37178
0.354985
0.374572
0.378035
0.374569
0.367854
0.356528
0.361416
0.37197
0.361543
0.364007
0.368096
0.354173
0.36567
0.358357
0.380252
0.390304
0.365261
0.373511
0.37456
0.358395
0.352722
0.358371
0.36771
0.371025
0.369397
0.362599
0.366372
0.361455
0.3691
0.370236
0.350021
0.368227
0.371208
0.37455
0.382993
0.365954
0.358018
0.360445
0.355752
0.360337
0.370603
0.374074
0.359437
0.362947
0.370145
0.377969
0.387237
0.379961
0.370544
0.362056
0.353811
0.365029
0.378367
0.39184
0.368494
0.374211
0.371153
0.362302
0.357039
0.367705
0.364603
0.377823
0.382906
0.363202
0.37091
0.368638
0.379668
0.350567
0.355118
0.355122
0.373145
0.379
0.364873
0.364833
0.371501
0.383275
0.357914
0.368663
0.391077
0.363513
0.351394
0.368387
0.38419
0.366819
0.333762
0.374519
0.376571
0.38573
0.355753
0.348443
0.366859
0.352127
0.359219
0.377236
0.355358
0.348548
0.369521
0.365812
0.374081
0.386402
0.372824
0.367623
0.364172
0.363485
0.363015
0.363352
0.37617
0.374362
0.361916
0.365311
0.372303
0.380588
0.363887
0.355291
0.363799
0.351418
0.355081
0.367199
0.383272
0.363756
0.366815
0.356091
0.361055
0.379381
0.375763
0.359806
0.378072
0.362808
0.344131
0.363538
0.362378
0.369772
0.377057
0.359646
0.359947
0.370581
0.360923
0.351719
0.360528
0.383151
0.368531
0.365918
0.358501
0.367839
0.367172
0.360237
0.35219
0.363563
0.373559
0.369358
0.356173
0.370724
0.352624
0.369745
0.363354
0.351184
0.350391
0.372219
0.373128
0.344515
0.356174
0.359274
0.369027
0.37661
0.380798
0.366106
0.360732
0.367178
0.375734
0.37671
0.35204
0.372398
0.382749
0.378779
0.367399
0.367443
0.353553
0.354671
0.34139
0.362292
0.372701
0.375707
0.360721
0.356988
0.359139
0.371822
0.364891
0.371918
0.374513
0.357327
0.36921
0.374342
0.352789
0.364065
0.344723
0.363513
0.349822
0.378439
0.390124
0.328018
0.356898
0.372522
0.374099
0.366139
0.379332
0.363109
0.371255
0.352296
0.346447
0.366036
0.360049
0.375802
0.363844
0.356779
0.374751
0.354697
0.359061
0.383465
0.357993
0.34543
0.351084
0.385189
0.394647
0.369049
0.389486
0.379157
0.362396
0.362096
0.363784
0.375032
0.357825
0.382845
0.360115
0.355649
0.349546
0.368087
0.369302
0.362507
0.39159
0.375935
0.363773
0.3615
0.369573
0.374384
0.372273
0.378277
0.374538
0.338754
0.360129
0.361063
0.358529
0.372543
0.358096
0.368347
0.35848
0.374758
0.38053
0.370348
0.363578
0.362011
0.376195
0.363569
0.358723
0.376543
0.374405
0.363028
0.363615
0.373581
0.379482
0.365119
0.359809
0.376546
0.363986
0.35668
0.359307
0.366663
0.377044
0.37288
0.366413
0.347699
0.359712
0.372072
0.377938
0.356973
0.378434
0.390441
0.362383
0.357721
0.363078
0.367626
0.366038
0.393256
0.368824
0.355006
0.371817
0.370561
0.336529
0.371041
0.364995
0.352221
0.380508
0.378594
0.377486
0.345269
0.354405
0.361202
0.360402
0.367439
0.372353
0.35033
0.362615
0.371561
0.368575
0.36489
0.372522
0.3641
0.362512
0.366957
0.372069
0.372322
0.370608
0.348351
0.380614
0.376822
0.352547
0.341563
0.362765
0.376187
0.382731
0.371488
0.376753
0.335379
0.354746
0.358194
0.351318
0.38371
0.380986
0.352693
0.358586
0.374484
0.375027
0.37036
0.369554
0.352011
0.364237
0.392392
0.360015
0.370468
0.349856
0.360785
0.374116
0.364925
0.371513
0.373946
0.375385
0.369445
0.373903
0.368345
0.362027
0.372557
0.35847
0.360263
0.36861
0.364112
0.365656
0.365446
0.360707
0.358876
0.366247
0.384984
0.371232
0.355008
0.353439
0.35208
0.352276
0.354737
0.382288
0.368031
0.376459
0.390262
0.376219
0.378669
0.350588
0.358872
0.356122
0.376722
0.37496
0.374861
0.356416
0.365828
0.35683
0.353028
0.36565
0.374972
0.368031
0.375947
0.367719
0.373587
0.375554
0.362473
0.383322
0.362432
0.362018
0.374843
0.355145
0.355218
0.34511
0.367961
0.353952
0.349172
0.362173
0.395139
0.38402
0.381737
0.368848
0.366754
0.351087
0.355739
0.38741
0.393527
0.381177
0.360678
0.34018
0.368166
0.368631
0.370132
0.363154
0.370165
0.358265
0.367137
0.381467
0.349786
0.350452
0.369471
0.385375
0.362653
0.356249
0.361601
0.365603
0.348294
0.358621
0.380598
0.378692
0.370131
0.372914
0.375446
0.38243
0.373143
0.359422
0.376993
0.356414
0.349274
0.366351
0.367516
0.379851
0.361905
0.373806
0.367375
0.360491
0.365295
0.356094
0.370562
0.373676
0.379504
0.374728
0.365073
0.345962
0.370479
0.370119
0.391291
0.368006
0.338812
0.355046
0.376516
0.362016
0.342955
0.368047
0.349673
0.379338
0.367705
0.364728
0.388341
0.36944
0.364545
0.361534
0.363643
0.356866
0.368615
0.365295
0.362446
0.372796
0.37299
0.367163
0.374955
0.366325
0.361583
0.352997
0.365823
0.354674
0.369521
0.357271
0.371589
0.378958
0.378232
0.365919
0.354563
0.377206
0.359558
0.362106
0.379061
0.391471
0.350708
0.380701
0.385227
0.359013
0.379232
0.370253
0.34837
0.360167
0.365704
0.390301
0.381108
0.344444
0.368345
0.375335
0.363661
0.34408
0.374345
0.39217
0.374573
0.353054
0.367732
0.373191
0.35789
0.328641
0.36433
0.35824
0.38961
0.363751
0.364881
0.356514
0.361764
0.368397
0.346761
0.355124
0.377094
0.371978
0.377985
0.360696
0.374979
0.364253
0.380222
0.344923
0.35582
0.363347
0.3621
0.364388
0.368501
0.377445
0.374531
0.349904
0.375934
0.368466
0.369336
0.355707
0.361789
0.373433
0.35991
0.366643
0.377268
0.361861
0.363135
0.368857
0.349829
0.383936
0.374177
0.380229
0.363406
0.365217
0.350496
0.351604
0.374865
0.373832
0.360722
0.364638
0.354058
0.349827
0.355691
0.375941
0.379823
0.376627
0.372024
0.367719
0.357567
0.369526
0.372487
0.373045
0.365986
0.354643
0.336327
0.373005
0.371247
0.365975
0.358433
0.361623
0.379694
0.363629
0.380752
0.368141
0.352926
0.353897
0.361661
0.363232
0.373592
0.373342
0.369248
0.360707
0.345198
0.344303
0.383775
0.366504
0.38266
0.381732
0.356534
0.367478
0.35045
0.36632
0.36562
0.350479
0.356474
0.363736
0.365771
0.357902
0.374295
0.374766
0.367762
0.359442
0.356219
0.377177
0.373453
0.355921
0.368836
0.364108
0.350439
0.358796
0.374698
0.370898
0.365377
0.365744
0.382093
0.347768
0.357981
0.367033
0.377035
0.360807
0.362175
0.375132
0.372153
0.376015
0.358745
0.349855
0.367784
0.36369
0.354969
0.365028
0.376131
0.364825
0.363765
0.379766
0.381632
0.391315
0.35352
0.357034
0.358028
0.365906
0.354076
0.366972
0.368658
0.366964
0.350056
0.379466
0.370442
0.352623
0.354957
0.350123
0.373704
0.376032
0.374868
0.364451
0.36955
0.386973
0.376115
0.357261
0.382652
0.378246
0.365277
0.377408
0.375172
0.374833
0.369673
0.356096
0.370038
0.362952
0.348715
0.344004
0.365109
0.368278
0.381282
0.369728
0.392162
0.374735
0.364299
0.349376
0.363114
0.367522
0.361193
0.354028
0.37686
0.382067
0.364892
0.362041
0.370258
0.381969
0.353454
0.353548
0.377985
0.37867
0.378777
0.354871
0.38104
0.353795
0.365616
0.361348
0.377669
0.373834
0.357358
0.377206
0.345278
0.356995
0.364807
0.377066
0.369208
0.365514
0.365296
0.348455
0.361822
0.382564
0.376303
0.362373
0.361181
0.372808
0.355129
0.358772
0.359956
0.357253
0.377535
0.383233
0.353242
0.359151
0.350876
0.367876
0.366451
0.363493
0.382561
0.359788
0.357232
0.376617
0.377637
0.365209
0.369618
0.365825
0.366756
0.35709
0.357416
0.36064
0.362314
0.375216
0.365233
0.364756
0.376225
0.363313
0.361839
0.346896
0.36968
0.354037
0.363769
0.361637
0.381944
0.352467
0.372759
0.379967
0.372618
0.351511
0.373279
0.379912
0.374619
0.363871
0.361707
0.368488
0.355053
0.367806
0.373866
0.382733
0.366423
0.364817
0.358845
0.36043
0.3458
0.364388
0.384161
0.380269
0.366499
0.366674
0.364556
0.385533
0.367654
0.36654
0.364295
0.36067
0.35698
0.379102
0.348745
0.363067
0.385893
0.354281
0.367086
0.371792
0.369695
0.378325
0.387797
0.352861
0.352655
0.350151
0.355613
0.379833
0.387034
0.368782
0.369959
0.36456
0.375182
0.368063
0.348661
0.370482
0.359538
0.388795
0.376866
0.359106
0.367385
0.353252
0.366854
0.362479
0.383674
0.391381
0.377597
0.380682
0.364927
0.371343
0.369145
0.373403
0.362064
0.346193
0.351535
0.368851
0.380784
0.351853
0.362968
0.378798
0.371053
0.359423
0.368601
0.374294
0.359474
0.361161
0.36317
0.354755
0.375037
0.363503
0.367567
0.362291
0.369491
0.376303
0.354252
0.352817
0.37529
0.376667
0.361586
0.358958
0.370026
0.343361
0.363818
0.371021
0.367956
0.377751
0.350969
0.379704
0.404018
0.368121
0.361757
0.369654
0.348978
0.360992
0.370517
0.358642
0.359324
0.358934
0.363707
0.369153
0.379761
0.350133
0.356354
0.374957
0.377488
0.379005
0.360954
0.351918
0.378769
0.387995
0.380572
0.359489
0.361093
0.353333
0.360221
0.365161
0.379995
0.377006
0.381033
0.339402
0.367611
0.370117
0.376625
0.377035
0.371027
0.378679
0.362404
0.357633
0.357657
0.366784
0.355702
0.360095
0.379465
0.367381
0.369847
0.35135
0.365006
0.36586
0.350614
0.369952
0.380478
0.361677
0.361858
0.351724
0.361558
0.372586
0.378366
0.35229
0.367916
0.37428
0.36925
0.403327
0.366247
0.361591
0.366163
0.365981
0.360691
0.363962
0.371598
0.377735
0.364167
0.360207
0.36604
0.361319
0.352657
0.355794
0.391526
0.370404
0.375333
0.374416
0.381216
0.364507
0.367767
0.377507
0.360929
0.376051
0.379448
0.357444
0.37506
0.34742
0.352076
0.368982
0.358286
0.371285
0.371141
0.369564
0.379803
0.378279
0.353506
0.366749
0.378945
0.36147
0.358489
0.367943
0.368515
0.375643
0.383939
0.379335
0.355904
0.351084
0.358217
0.379512
0.37856
0.358721
0.366175
0.345388
0.351543
0.371695
0.342183
0.356958
0.368942
0.368391
0.391513
0.381373
0.365987
0.365285
0.37202
0.379556
0.359378
0.37321
0.349337
0.36489
0.356594
0.385005
0.365963
0.356743
0.350146
0.377091
0.382761
0.373492
0.360909
0.380951
0.367636
0.341715
0.369569
0.369094
0.349659
0.364503
0.364319
0.368396
0.389545
0.378873
0.368618
0.357691
0.368981
0.37041
0.375318
0.368441
0.362189
0.359637
0.347248
0.362766
0.359942
0.37168
0.373696
0.377843
0.367893
0.366845
0.378135
0.37142
0.3493
0.352753
0.367746
0.379683
0.358656
0.349835
0.360816
0.371149
0.376262
0.388307
0.372005
0.363993
SCALARS Coverage1 float 1
LOOKUP_TABLE default
0.201987
0.193287
0.186374
0.173284
0.195691
0.195833
0.179293
0.191031
0.195894
0.194611
0.179337
0.17721
0.159267
0.182242
0.214248
0.196478
0.199731
0.191763
0.18045
0.191787
0.209024
0.186355
0.186541
0.192567
0.176505
0.197845
0.208389
0.180294
0.177126
0.226032
0.188967
0.167336
0.196779
0.20694
0.197126
0.160326
0.150352
0.171036
0.177334
0.170991
0.185134
0.188987
0.21527
0.20187
0.184968
0.198662
0.18297
0.179293
0.178624
0.188675
0.200409
0.215034
0.215436
0.19595
0.189982
0.201539
0.189424
0.200841
0.202249
0.199104
0.194134
0.199105
0.19686
0.182618
0.170739
0.194742
0.194095
0.201313
0.187224
0.187224
0.193699
0.203721
0.172015
0.171731
0.184775
0.196525
0.197446
0.189853
0.190793
0.157939
0.177148
0.196505
0.195097
0.191056
0.17378
0.186021
0.210653
0.176748
0.179458
0.171423
0.169257
0.192989
0.188957
0.188419
0.176266
0.19809
0.172875
0.155857
0.176219
0.181363
0.197454
0.18298
0.17275
0.168818
0.201553
0.204218
0.194873
0.193987
0.187321
0.189949
0.180681
0.155154
0.189629
0.172618
0.158253
0.171392
0.16731
0.16819
0.172632
0.162524
0.174943
0.194029
0.185493
0.1778
0.186582
0.188242
0.185196
0.201987
0.201313
0.170518
0.177172
0.180293
0.193699
0.173166
0.178725
0.190803
0.189195
0.192869
0.178829
0.185674
0.20192
0.200236
0.187017
0.193772
0.182242
0.173947
0.166156
0.183045
0.195203
0.186692
0.182975
0.19655
0.191593
0.172579
0.158474
0.172494
0.204737
0.18572
0.182565
0.171394
0.196224
0.182599
0.176538
0.183553
0.187772
0.19673
0.176916
0.20043
0.195766
0.183485
0.194998
0.194672
0.180018
0.176701
0.178803
0.183669
0.207418
0.206088
0.200529
0.200204
0.195688
0.203009
0.181581
0.180494
0.159585
0.18283
0.200922
0.175394
0.180483
0.189985
0.198904
0.214079
0.210912
0.221698
0.215773
0.167074
0.165549
0.189277
0.192077
0.205744
0.197566
0.198358
0.208207
0.210005
0.185016
0.157985
0.184578
0.188912
0.183981
0.207798
0.203721
0.203009
0.209508
0.219115
0.190757
0.173481
0.204296
0.197111
0.196861
0.20445
0.162376
0.169873
0.163519
0.174727
0.196084
0.183444
0.184042
0.184601
0.175196
0.188643
0.202189
0.18556
0.195026
0.208553
0.195283
0.174701
0.176189
0.175017
0.176472
0.176472
0.162669
0.170846
0.174306
0.174306
0.169667
0.179392
0.18005
0.186231
0.201713
0.180896
0.190434
0.183533
0.178518
0.199881
0.181055
0.205256
0.227826
0.181738
0.174519
0.180125
0.181581
0.176472
0.18503
0.190823
0.160554
0.169467
0.195632
0.185399
0.193797
0.181182
0.171473
0.186294
0.173623
0.165784
0.1806
0.187068
0.185307
0.187087
0.206915
0.201261
0.187808
0.17817
0.19105
0.168425
0.153468
0.147635
0.170728
0.169667
0.187068
0.191772
0.209502
0.189381
0.170734
0.183672
0.195497
0.191892
0.178218
0.174612
0.183008
0.172549
0.179335
0.172931
0.202243
0.202243
0.189854
0.189854
0.166814
0.177732
0.19094
0.184477
0.187749
0.17592
0.17474
0.168523
0.178984
0.189445
0.185307