# vtk DataFile Version 2.0
2D Surface
ASCII
DATASET UNSTRUCTURED_GRID
POINTS 1671 float
6.003e-05 0 0. 
6.003e-05 0 0. 
6.012e-05 0 0. 
6.021e-05 0 0. 
6.03e-05 0 0. 
6.039e-05 0 0. 
6.048e-05 0 0. 
6.057e-05 0 0. 
6.066e-05 0 0. 
6.075e-05 0 0. 
6.084e-05 0 0. 
6.093e-05 0 0. 
6.102e-05 0 0. 
6.111e-05 0 0. 
6.12e-05 0 0. 
6.129e-05 0 0. 
6.138e-05 0 0. 
6.147e-05 0 0. 
6.156e-05 0 0. 
6.165e-05 0 0. 
6.174e-05 0 0. 
6.183e-05 0 0. 
6.192e-05 0 0. 
6.201e-05 0 0. 
6.21e-05 0 0. 
6.219e-05 0 0. 
6.228e-05 0 0. 
6.237e-05 0 0. 
6.246e-05 0 0. 
6.255e-05 0 0. 
6.264e-05 0 0. 
6.273e-05 0 0. 
6.282e-05 0 0. 
6.291e-05 0 0. 
6.3e-05 0 0. 
6.309e-05 0 0. 
6.318e-05 0 0. 
6.327e-05 0 0. 
6.336e-05 0 0. 
6.345e-05 0 0. 
6.354e-05 0 0. 
6.363e-05 0 0. 
6.372e-05 0 0. 
6.381e-05 0 0. 
6.39e-05 0 0. 
6.399e-05 0 0. 
6.408e-05 0 0. 
6.417e-05 0 0. 
6.426e-05 0 0. 
6.435e-05 0 0. 
6.444e-05 0 0. 
6.453e-05 0 0. 
6.462e-05 0 0. 
6.471e-05 0 0. 
6.48e-05 0 0. 
6.489e-05 0 0. 
6.498e-05 0 0. 
6.507e-05 0 0. 
6.516e-05 0 0. 
6.525e-05 0 0. 
6.534e-05 0 0. 
6.543e-05 0 0. 
6.552e-05 0 0. 
6.561e-05 0 0. 
6.57e-05 0 0. 
6.579e-05 0 0. 
6.588e-05 0 0. 
6.597e-05 0 0. 
6.606e-05 0 0. 
6.615e-05 0 0. 
6.624e-05 0 0. 
6.633e-05 0 0. 
6.642e-05 0 0. 
6.651e-05 0 0. 
6.66e-05 0 0. 
6.669e-05 0 0. 
6.678e-05 0 0. 
6.687e-05 0 0. 
6.696e-05 0 0. 
6.705e-05 0 0. 
6.714e-05 0 0. 
6.723e-05 0 0. 
6.732e-05 0 0. 
6.741e-05 0 0. 
6.75e-05 0 0. 
6.759e-05 0 0. 
6.768e-05 0 0. 
6.777e-05 0 0. 
6.786e-05 0 0. 
6.795e-05 0 0. 
6.804e-05 0 0. 
6.813e-05 0 0. 
6.822e-05 0 0. 
6.831e-05 0 0. 
6.84e-05 0 0. 
6.849e-05 0 0. 
6.858e-05 0 0. 
6.867e-05 0 0. 
6.876e-05 0 0. 
6.885e-05 0 0. 
6.894e-05 0 0. 
6.903e-05 0 0. 
6.912e-05 0 0. 
6.921e-05 0 0. 
6.93e-05 0 0. 
6.939e-05 0 0. 
6.948e-05 0 0. 
6.957e-05 0 0. 
6.966e-05 0 0. 
6.975e-05 0 0. 
6.984e-05 0 0. 
6.993e-05 0 0. 
7.002e-05 0 0. 
7.011e-05 0 0. 
7.02e-05 0 0. 
7.029e-05 0 0. 
7.038e-05 0 0. 
7.047e-05 0 0. 
7.056e-05 0 0. 
7.065e-05 0 0. 
7.074e-05 0 0. 
7.083e-05 0 0. 
7.092e-05 0 0. 
7.101e-05 0 0. 
7.11e-05 0 0. 
7.119e-05 0 0. 
7.128e-05 0 0. 
7.137e-05 0 0. 
7.146e-05 0 0. 
7.155e-05 0 0. 
7.164e-05 0 0. 
7.173e-05 0 0. 
7.182e-05 0 0. 
7.191e-05 0 0. 
7.2e-05 0 0. 
7.209e-05 0 0. 
7.218e-05 0 0. 
7.227e-05 0 0. 
7.236e-05 0 0. 
7.245e-05 0 0. 
7.254e-05 0 0. 
7.263e-05 0 0. 
7.272e-05 0 0. 
7.281e-05 0 0. 
7.29e-05 0 0. 
7.299e-05 0 0. 
7.308e-05 0 0. 
7.317e-05 0 0. 
7.326e-05 0 0. 
7.335e-05 0 0. 
7.344e-05 0 0. 
7.353e-05 0 0. 
7.362e-05 0 0. 
7.371e-05 0 0. 
7.38e-05 0 0. 
7.389e-05 0 0. 
7.398e-05 0 0. 
7.407e-05 0 0. 
7.416e-05 0 0. 
7.425e-05 0 0. 
7.434e-05 0 0. 
7.443e-05 0 0. 
7.452e-05 0 0. 
7.461e-05 0 0. 
7.47e-05 0 0. 
7.479e-05 0 0. 
7.488e-05 0 0. 
7.497e-05 0 0. 
7.506e-05 0 0. 
7.515e-05 0 0. 
7.524e-05 0 0. 
7.533e-05 0 0. 
7.542e-05 0 0. 
7.551e-05 0 0. 
7.56e-05 0 0. 
7.569e-05 0 0. 
7.578e-05 0 0. 
7.587e-05 0 0. 
7.596e-05 0 0. 
7.605e-05 0 0. 
7.614e-05 0 0. 
7.623e-05 0 0. 
7.632e-05 0 0. 
7.641e-05 0 0. 
7.65e-05 0 0. 
7.659e-05 0 0. 
7.668e-05 0 0. 
7.677e-05 0 0. 
7.686e-05 0 0. 
7.695e-05 0 0. 
7.704e-05 0 0. 
7.713e-05 0 0. 
7.722e-05 0 0. 
7.731e-05 0 0. 
7.74e-05 0 0. 
7.749e-05 0 0. 
7.758e-05 0 0. 
7.767e-05 0 0. 
7.776e-05 0 0. 
7.785e-05 0 0. 
7.794e-05 0 0. 
7.803e-05 0 0. 
7.812e-05 0 0. 
7.821e-05 0 0. 
7.83e-05 0 0. 
7.839e-05 0 0. 
7.848e-05 0 0. 
7.857e-05 0 0. 
7.866e-05 0 0. 
7.875e-05 0 0. 
7.884e-05 0 0. 
7.893e-05 0 0. 
7.902e-05 0 0. 
7.911e-05 0 0. 
7.92e-05 0 0. 
7.929e-05 0 0. 
7.938e-05 0 0. 
7.947e-05 0 0. 
7.956e-05 0 0. 
7.965e-05 0 0. 
7.974e-05 0 0. 
7.983e-05 0 0. 
7.992e-05 0 0. 
8.001e-05 0 0. 
8.01e-05 0 0. 
8.019e-05 0 0. 
8.028e-05 0 0. 
8.037e-05 0 0. 
8.046e-05 0 0. 
8.055e-05 0 0. 
8.064e-05 0 0. 
8.073e-05 0 0. 
8.082e-05 0 0. 
8.091e-05 0 0. 
8.1e-05 0 0. 
8.109e-05 0 0. 
8.118e-05 0 0. 
8.127e-05 0 0. 
8.136e-05 0 0. 
8.145e-05 0 0. 
8.154e-05 0 0. 
8.163e-05 0 0. 
8.172e-05 0 0. 
8.181e-05 0 0. 
8.19e-05 0 0. 
8.199e-05 0 0. 
8.208e-05 0 0. 
8.217e-05 0 0. 
8.226e-05 0 0. 
8.235e-05 0 0. 
8.244e-05 0 0. 
8.253e-05 0 0. 
8.262e-05 0 0. 
8.271e-05 0 0. 
8.28e-05 0 0. 
8.289e-05 0 0. 
8.298e-05 0 0. 
8.307e-05 0 0. 
8.316e-05 0 0. 
8.325e-05 0 0. 
8.334e-05 0 0. 
8.343e-05 0 0. 
8.352e-05 0 0. 
8.361e-05 0 0. 
8.37e-05 0 0. 
8.379e-05 0 0. 
8.388e-05 0 0. 
8.397e-05 0 0. 
8.406e-05 0 0. 
8.415e-05 0 0. 
8.424e-05 0 0. 
8.433e-05 0 0. 
8.442e-05 0 0. 
8.451e-05 0 0. 
8.46e-05 0 0. 
8.469e-05 0 0. 
8.478e-05 0 0. 
8.487e-05 0 0. 
8.496e-05 0 0. 
8.505e-05 0 0. 
8.514e-05 0 0. 
8.523e-05 0 0. 
8.532e-05 0 0. 
8.541e-05 0 0. 
8.55e-05 0 0. 
8.559e-05 0 0. 
8.568e-05 0 0. 
8.577e-05 0 0. 
8.586e-05 0 0. 
8.595e-05 0 0. 
8.604e-05 0 0. 
8.613e-05 0 0. 
8.622e-05 0 0. 
8.631e-05 0 0. 
8.64e-05 0 0. 
8.649e-05 0 0. 
8.658e-05 0 0. 
8.667e-05 0 0. 
8.676e-05 0 0. 
8.685e-05 0 0. 
8.694e-05 0 0. 
8.703e-05 0 0. 
8.712e-05 0 0. 
8.721e-05 0 0. 
8.73e-05 0 0. 
8.739e-05 0 0. 
8.748e-05 0 0. 
8.757e-05 0 0. 
8.766e-05 0 0. 
8.775e-05 0 0. 
8.784e-05 0 0. 
8.793e-05 0 0. 
8.802e-05 0 0. 
8.811e-05 0 0. 
8.82e-05 0 0. 
8.829e-05 0 0. 
8.838e-05 0 0. 
8.847e-05 0 0. 
8.856e-05 0 0. 
8.865e-05 0 0. 
8.874e-05 0 0. 
8.883e-05 0 0. 
8.892e-05 0 0. 
8.901e-05 0 0. 
8.91e-05 0 0. 
8.919e-05 0 0. 
8.928e-05 0 0. 
8.937e-05 0 0. 
8.946e-05 0 0. 
8.955e-05 0 0. 
8.964e-05 0 0. 
8.973e-05 0 0. 
8.982e-05 0 0. 
8.991e-05 0 0. 
9e-05 0 0. 
9e-05 0 0. 
6e-05 9e-08 0. 
9e-05 9e-08 0. 
0 1.5e-07 0. 
9e-08 1.5e-07 0. 
1.8e-07 1.5e-07 0. 
2.7e-07 1.5e-07 0. 
3.6e-07 1.5e-07 0. 
4.5e-07 1.5e-07 0. 
5.4e-07 1.5e-07 0. 
6.3e-07 1.5e-07 0. 
7.2e-07 1.5e-07 0. 
8.1e-07 1.5e-07 0. 
9e-07 1.5e-07 0. 
9.9e-07 1.5e-07 0. 
1.08e-06 1.5e-07 0. 
1.17e-06 1.5e-07 0. 
1.26e-06 1.5e-07 0. 
1.35e-06 1.5e-07 0. 
1.44e-06 1.5e-07 0. 
1.53e-06 1.5e-07 0. 
1.62e-06 1.5e-07 0. 
1.71e-06 1.5e-07 0. 
1.8e-06 1.5e-07 0. 
1.89e-06 1.5e-07 0. 
1.98e-06 1.5e-07 0. 
2.07e-06 1.5e-07 0. 
2.16e-06 1.5e-07 0. 
2.25e-06 1.5e-07 0. 
2.34e-06 1.5e-07 0. 
2.43e-06 1.5e-07 0. 
2.52e-06 1.5e-07 0. 
2.61e-06 1.5e-07 0. 
2.7e-06 1.5e-07 0. 
2.79e-06 1.5e-07 0. 
2.88e-06 1.5e-07 0. 
2.97e-06 1.5e-07 0. 
3.06e-06 1.5e-07 0. 
3.15e-06 1.5e-07 0. 
3.24e-06 1.5e-07 0. 
3.33e-06 1.5e-07 0. 
3.42e-06 1.5e-07 0. 
3.51e-06 1.5e-07 0. 
3.6e-06 1.5e-07 0. 
3.69e-06 1.5e-07 0. 
3.78e-06 1.5e-07 0. 
3.87e-06 1.5e-07 0. 
3.96e-06 1.5e-07 0. 
4.05e-06 1.5e-07 0. 
4.14e-06 1.5e-07 0. 
4.23e-06 1.5e-07 0. 
4.32e-06 1.5e-07 0. 
4.41e-06 1.5e-07 0. 
4.5e-06 1.5e-07 0. 
4.59e-06 1.5e-07 0. 
4.68e-06 1.5e-07 0. 
4.77e-06 1.5e-07 0. 
4.86e-06 1.5e-07 0. 
4.95e-06 1.5e-07 0. 
5.04e-06 1.5e-07 0. 
5.13e-06 1.5e-07 0. 
5.22e-06 1.5e-07 0. 
5.31e-06 1.5e-07 0. 
5.4e-06 1.5e-07 0. 
5.49e-06 1.5e-07 0. 
5.58e-06 1.5e-07 0. 
5.67e-06 1.5e-07 0. 
5.76e-06 1.5e-07 0. 
5.85e-06 1.5e-07 0. 
5.94e-06 1.5e-07 0. 
6.03e-06 1.5e-07 0. 
6.12e-06 1.5e-07 0. 
6.21e-06 1.5e-07 0. 
6.3e-06 1.5e-07 0. 
6.39e-06 1.5e-07 0. 
6.48e-06 1.5e-07 0. 
6.57e-06 1.5e-07 0. 
6.66e-06 1.5e-07 0. 
6.75e-06 1.5e-07 0. 
6.84e-06 1.5e-07 0. 
6.93e-06 1.5e-07 0. 
7.02e-06 1.5e-07 0. 
7.11e-06 1.5e-07 0. 
7.2e-06 1.5e-07 0. 
7.29e-06 1.5e-07 0. 
7.38e-06 1.5e-07 0. 
7.47e-06 1.5e-07 0. 
7.56e-06 1.5e-07 0. 
7.65e-06 1.5e-07 0. 
7.74e-06 1.5e-07 0. 
7.83e-06 1.5e-07 0. 
7.92e-06 1.5e-07 0. 
8.01e-06 1.5e-07 0. 
8.1e-06 1.5e-07 0. 
8.19e-06 1.5e-07 0. 
8.28e-06 1.5e-07 0. 
8.37e-06 1.5e-07 0. 
8.46e-06 1.5e-07 0. 
8.55e-06 1.5e-07 0. 
8.64e-06 1.5e-07 0. 
8.73e-06 1.5e-07 0. 
8.82e-06 1.5e-07 0. 
8.91e-06 1.5e-07 0. 
9e-06 1.5e-07 0. 
9.09e-06 1.5e-07 0. 
9.18e-06 1.5e-07 0. 
9.27e-06 1.5e-07 0. 
9.36e-06 1.5e-07 0. 
9.45e-06 1.5e-07 0. 
9.54e-06 1.5e-07 0. 
9.63e-06 1.5e-07 0. 
9.72e-06 1.5e-07 0. 
9.81e-06 1.5e-07 0. 
9.9e-06 1.5e-07 0. 
9.99e-06 1.5e-07 0. 
1.008e-05 1.5e-07 0. 
1.017e-05 1.5e-07 0. 
1.026e-05 1.5e-07 0. 
1.035e-05 1.5e-07 0. 
1.044e-05 1.5e-07 0. 
1.053e-05 1.5e-07 0. 
1.062e-05 1.5e-07 0. 
1.071e-05 1.5e-07 0. 
1.08e-05 1.5e-07 0. 
1.089e-05 1.5e-07 0. 
1.098e-05 1.5e-07 0. 
1.107e-05 1.5e-07 0. 
1.116e-05 1.5e-07 0. 
1.125e-05 1.5e-07 0. 
1.134e-05 1.5e-07 0. 
1.143e-05 1.5e-07 0. 
1.152e-05 1.5e-07 0. 
1.161e-05 1.5e-07 0. 
1.17e-05 1.5e-07 0. 
1.179e-05 1.5e-07 0. 
1.188e-05 1.5e-07 0. 
1.197e-05 1.5e-07 0. 
1.206e-05 1.5e-07 0. 
1.215e-05 1.5e-07 0. 
1.224e-05 1.5e-07 0. 
1.233e-05 1.5e-07 0. 
1.242e-05 1.5e-07 0. 
1.251e-05 1.5e-07 0. 
1.26e-05 1.5e-07 0. 
1.269e-05 1.5e-07 0. 
1.278e-05 1.5e-07 0. 
1.287e-05 1.5e-07 0. 
1.296e-05 1.5e-07 0. 
1.305e-05 1.5e-07 0. 
1.314e-05 1.5e-07 0. 
1.323e-05 1.5e-07 0. 
1.332e-05 1.5e-07 0. 
1.341e-05 1.5e-07 0. 
1.35e-05 1.5e-07 0. 
1.359e-05 1.5e-07 0. 
1.368e-05 1.5e-07 0. 
1.377e-05 1.5e-07 0. 
1.386e-05 1.5e-07 0. 
1.395e-05 1.5e-07 0. 
1.404e-05 1.5e-07 0. 
1.413e-05 1.5e-07 0. 
1.422e-05 1.5e-07 0. 
1.431e-05 1.5e-07 0. 
1.44e-05 1.5e-07 0. 
1.449e-05 1.5e-07 0. 
1.458e-05 1.5e-07 0. 
1.467e-05 1.5e-07 0. 
1.476e-05 1.5e-07 0. 
1.485e-05 1.5e-07 0. 
1.494e-05 1.5e-07 0. 
1.503e-05 1.5e-07 0. 
1.512e-05 1.5e-07 0. 
1.521e-05 1.5e-07 0. 
1.53e-05 1.5e-07 0. 
1.539e-05 1.5e-07 0. 
1.548e-05 1.5e-07 0. 
1.557e-05 1.5e-07 0. 
1.566e-05 1.5e-07 0. 
1.575e-05 1.5e-07 0. 
1.584e-05 1.5e-07 0. 
1.593e-05 1.5e-07 0. 
1.602e-05 1.5e-07 0. 
1.611e-05 1.5e-07 0. 
1.62e-05 1.5e-07 0. 
1.629e-05 1.5e-07 0. 
1.638e-05 1.5e-07 0. 
1.647e-05 1.5e-07 0. 
1.656e-05 1.5e-07 0. 
1.665e-05 1.5e-07 0. 
1.674e-05 1.5e-07 0. 
1.683e-05 1.5e-07 0. 
1.692e-05 1.5e-07 0. 
1.701e-05 1.5e-07 0. 
1.71e-05 1.5e-07 0. 
1.719e-05 1.5e-07 0. 
1.728e-05 1.5e-07 0. 
1.737e-05 1.5e-07 0. 
1.746e-05 1.5e-07 0. 
1.755e-05 1.5e-07 0. 
1.764e-05 1.5e-07 0. 
1.773e-05 1.5e-07 0. 
1.782e-05 1.5e-07 0. 
1.791e-05 1.5e-07 0. 
1.8e-05 1.5e-07 0. 
1.809e-05 1.5e-07 0. 
1.818e-05 1.5e-07 0. 
1.827e-05 1.5e-07 0. 
1.836e-05 1.5e-07 0. 
1.845e-05 1.5e-07 0. 
1.854e-05 1.5e-07 0. 
1.863e-05 1.5e-07 0. 
1.872e-05 1.5e-07 0. 
1.881e-05 1.5e-07 0. 
1.89e-05 1.5e-07 0. 
1.899e-05 1.5e-07 0. 
1.908e-05 1.5e-07 0. 
[...]
POINT_DATA 1671
SCALARS Coverage0 float 1
LOOKUP_TABLE default
0.384246
0.384246
0.343047
0.37853
0.363272
0.35588
0.353627
0.355478
0.352894
0.36755
0.364275
0.352294
0.361359
0.366125
0.365622
0.379778
0.364471
0.364182
0.397359
0.378203
0.363744
0.357163
0.371822
0.37395
0.352358
0.354196
0.353432
0.362712
0.37504
0.36613
0.371688
0.350325
0.349136
0.372303
0.368596
0.364778
0.363281
0.378759
0.357617
0.355206
0.371173
0.371752
0.35354
0.373069
0.385527
0.372718
0.365802
0.352911
0.390712
0.368767
0.358847
0.348559
0.355991
0.363799
0.360941
0.354354
0.371834
0.363336
0.351386
0.369691
0.370497
0.369021
0.362059
0.351115
0.396243
0.386861
0.398897
0.360633
0.363287
0.360696
0.363447
0.351122
0.366381
0.371964
0.3554
0.369007
0.375255
0.355091
0.341111
0.385674
0.383201
0.375381
0.368629
0.368153
0.362134
0.371438
0.387288
0.379737
0.356128
0.356468
0.371611
0.360015
0.355778
0.372255
0.347842
0.354547
0.371177
0.371697
0.372375
0.354229
0.364273
0.360734
0.382339
0.370396
0.364267
0.355897
0.364867
0.367848
0.370976
0.351891
0.346048
0.369044
0.362475
0.373794
0.368409
0.365758
0.389494
0.367192
0.350796
0.369275
0.374164
0.380048
0.363886
0.360628
0.351973
0.365824
0.382301
0.360717
0.376604
0.365292
0.366772
0.376111
0.361826
0.369394
0.356378
0.345269
0.361488
0.369466
0.367461
0.353562
0.359395
0.38463
0.390965
0.367633
0.367459
0.36981
0.380703
0.359716
0.365876
0.356876
0.354215
0.368423
0.368328
0.386772
0.374459
0.343648
0.36137
0.374494
0.371057
0.368516
0.38078
0.351557
0.362784
0.363317
0.35834
0.360657
0.381722
0.393683
0.380284
0.355295
0.381578
0.381547
0.360153
0.356895
0.375436
0.369204
0.362803
0.37081
0.377713
0.370935
0.348657
0.375557
0.387372
0.375221
0.374535
0.363376
0.36049
0.346488
0.353323
0.351266
0.368372
0.3587
0.343534
0.358787
0.363362
0.351381
0.376956
0.375834
0.37042
0.390704
0.366405
0.366996
0.379506
0.363526
0.363771
0.368777
0.362647
0.350649
0.376713
0.3413
0.372857
0.375868
0.358053
0.36195
0.379235
0.387019
0.349756
0.360701
0.363638
0.360515
0.349718
0.345226
0.379389
0.375884
0.366588
0.368834
0.350875
0.364487
0.368005
0.357873
0.358909
0.358016
0.375772
0.37876
0.353139
0.373594
0.36466
0.372512
0.361503
0.349766
0.365354
0.377372
0.359076
0.362715
0.364934
0.369447
0.393897
0.365756
0.355246
0.384513
0.378067
0.361408
0.37196
0.384483
0.359449
0.363504
0.356984
0.35538
0.367405
0.353406
0.361564
0.364082
0.3471
0.371917
0.381077
0.363331
0.364679
0.360184
0.368387
0.379432
0.381192
0.363295
0.364501
0.370553
0.352812
0.355792
0.338272
0.352638
0.380468
0.387323
0.370838
0.384682
0.362854
0.358563
0.36994
0.351223
0.349711
0.363072
0.379975
0.372852
0.382525
0.358886
0.345394
0.380853
0.37225
0.35857
0.382752
0.393727
0.361193
0.350654
0.352681
0.362252
0.365324
0.378175
0.378356
0.372092
0.374949
0.370166
0.357154
0.349046
0.366102
0.354262
0.359466
0.379069
0.362396
0.366528
0.347646
0.367514
0.373108
0.375822
0.365879
0.357864
0.363739
0.362351
0.385276
0.358827
0.36128
0.360438
0.367222
0.362288
0.35821
0.367931
0.344715
0.335223
0.454621
0.454621
0.509762
0.572725
0.346179
0.36963
0.375778
0.374806
0.345635
0.348985
0.374392
0.395024
0.36917
0.359047
0.353551
0.361487
0.369718
0.369375
0.358774
0.37278
0.371873
0.359184
0.355374
0.36342
0.354514
0.373943
0.364731
0.35346
0.348345
0.35091
0.372812
0.349939
0.368724
0.37804
0.352019
0.358681
0.37168
0.37476
0.357953
0.351772
0.376287
0.354066
0.353287
0.37689
0.387986
0.370613
0.381133
0.368665
0.372881
0.365263
0.359318
0.357827
0.349262
0.379175
0.374754
0.352882
0.367474
0.367039
0.366978
0.382416
0.375886
0.375462
0.352512
0.351762
0.374312
0.355873
0.366905
0.36809
0.370913
0.35489
0.352301
0.373265
0.373762
0.380182
0.358922
0.364159
0.372058
0.386747
0.3753
0.350483
0.370743
0.372316
0.352476
0.340474
0.384391
0.370966
0.359319
0.36462
0.350909
0.369464
0.381512
0.383007
0.360637
0.365173
0.366629
0.362212
0.349921
0.381157
0.362114
0.35682
0.35936
0.370642
0.374672
0.384961
0.373743
0.372304
0.376088
0.374114
0.359315
0.375542
0.355482
0.345351
0.366584
0.365675
0.367432
0.385874
0.384722
0.360235
0.370695
0.352333
0.366932
0.370721
0.376742
0.36334
0.364141
0.3732
0.348422
0.379029
0.367346
0.359919
0.366893
0.358571
0.361345
0.36384
0.351292
0.397768
0.370909
0.357412
0.357843
0.355913
0.369853
0.366743
0.370122
0.371615
0.345035
0.351337
0.36888
0.366668
0.363163
0.364567
0.365271
0.366143
0.379179
0.375764
0.354355
0.379369
0.374507
0.380075
0.384236
0.36367
0.371153
0.370256
0.356869
0.352125
0.345869
0.364348
0.382032
0.361668
0.367074
0.356396
0.377388
0.36972
0.370395
0.376266
0.378555
0.369874
0.365578
0.366136
0.361182
0.358271
0.349606
0.363704
0.387226
0.354648
0.36713
0.371222
0.343942
0.361946
0.359492
0.370747
0.368261
0.360495
0.368865
0.35717
0.381895
0.360316
0.367403
0.357449
0.361443
0.347903
0.37036
0.370885
0.363843
0.366949
0.360061
0.37744
0.353627
0.346499
0.382487
0.365408
0.360891
0.359205
0.381634
0.352392
0.34611
0.363353
0.365714
0.368547
0.358344
0.370366
0.358867
0.364332
0.371665
0.367555
0.38241
0.385703
0.369308
0.357781
0.350362
0.374303
0.365425
0.354957
0.385984
0.381402
0.359513
0.360299
0.371636
0.36347
0.348293
0.36548
0.365106
0.369736
0.369026
0.382156
0.369181
0.353483
0.357344
0.36836
0.369938
0.37802
0.35847
0.360282
0.351969
0.362651
0.355016
0.368655
0.365057
0.362188
0.37874
0.37147
0.371245
0.367465
0.379767
0.381418
0.360895
0.340595
0.361369
0.374977
0.374674
0.377749
0.378878
0.390593
0.351908
0.344316
0.3771
0.381773
0.373281
0.373617
0.356548
0.367393
0.354254
0.347299
0.365234
0.402159
0.342753
0.356327
0.383371
0.35853
0.38566
0.369629
0.361549
0.358677
0.368052
0.37721
0.353355
0.370043
0.360986
0.378851
0.357849
0.364302
0.37644
0.37333
0.358982
0.355964
0.364443
0.361131
0.36143
0.376475
0.350285
0.357666
0.365638
0.364613
0.341583
0.371899
0.364535
0.371807
0.361171
0.380549
0.36519
0.360587
0.3475
0.38205
0.378387
0.366898
0.365138
0.369502
0.356005
0.360149
0.35826
0.360716
0.364376
0.357445
0.37076
0.385995
0.361063
0.359297
0.36371
0.370395
0.355698
0.367287
0.375442
0.375585
0.385655
0.370203
0.370723
0.377284
0.367571
0.383227
0.368087
0.361115
0.352121
0.361346
0.342238
0.366487
0.363962
0.369132
0.371425
0.389346
0.366902
0.368815
0.341614
0.355788
0.370517
0.369691
0.371545
0.373199
0.350356
0.370324
0.348814
0.359866
0.367912
0.361919
0.369235
0.3631
0.357115
0.377019
0.388025
0.363707
0.355522
0.352703
0.365732
0.36707
0.387345
0.371285
0.363858
0.354221
0.359101
0.355486
0.382996
0.380127
0.379373
0.368587
0.368633
0.366468
0.35993
0.371365
0.370229
0.366173
0.370861
0.380388
0.345147
0.356706
0.357654
0.363471
0.355546
0.374268
0.38308
0.375096
0.346647
0.368601
0.360626
0.383854
0.363906
0.354395
0.35206
0.381382
0.378394
0.362364
0.362191
0.365664
0.347799
0.363977
0.381055
0.350529
0.345124
0.356388
0.370394
0.368005
0.367439
0.370106
0.362977
0.370575
0.356683
0.357924
0.36989
0.369348
0.364186
0.36208
0.36987
0.370516
0.35296
0.351651
0.369253
0.378751
0.377749
0.360583
0.368938
0.371056
0.357088
0.343447
0.362548
0.364891
0.362326
0.380533
0.365863
0.362845
0.380417
0.376773
0.356058
0.3527
0.366437
0.361637
0.369137
0.362005
0.369894
0.371576
0.366859
0.391831
0.373396
0.364166
0.357737
0.369791
0.3629
0.357177
0.360895
0.36758
0.392935
0.376953
0.367083
0.354294
0.361192
0.36547
0.368667
0.367708
0.392328
0.358366
0.366792
0.373228
0.394643
0.367957
0.35558
0.343894
0.36233
0.367818
0.376963
0.377565
0.363995
0.370099
0.369061
0.342948
0.350647
0.361494
0.373347
0.366875
0.377773
0.377981
0.366381
0.341423
0.347867
0.362399
0.36948
0.387226
0.381529
0.359608
0.362507
0.372505
0.352586
0.370843
0.360508
0.373721
0.376056
0.359625
0.369487
0.374798
0.341131
0.360629
0.380807
0.381762
0.378452
0.362816
0.358326
0.370986
0.353701
0.362409
0.369132
0.366754
0.372402
0.369222
0.35654
0.369099
0.377323
0.367032
0.336134
0.356055
0.386117
0.385118
0.362205
0.3604
0.361136
0.357339
0.390667
0.378741
0.371982
0.356857
0.350739
0.36118
0.370262
0.364759
0.364873
0.375098
0.354366
0.363733
0.367766
0.368359
0.372383
0.377004
0.373523
0.366732
0.351705
0.373685
0.358665
0.348052
0.351837
0.361989
0.369584
0.377747
0.372387
0.378659
0.359093
0.362494
0.349936
0.3568
0.359725
0.36175
0.372674
0.371053
0.366197
0.367899
0.352799
0.361153
0.364118
0.364585
0.372009
0.37195
0.359932
0.359487
0.374664
0.36362
0.358288
0.368388
0.368006
0.372151
0.393326
0.387025
0.371976
0.358
0.363274
0.373302
0.357564
0.354159
0.373335
0.380258
0.381104
0.355403
0.372033
0.370097
0.357952
0.372565
0.361692
0.369475
0.34991
0.368321
0.374005
0.370377
0.368764
0.338851
0.363754
0.368489
0.361789
0.37361
0.373658
0.374053
0.370536
0.344533
0.36355
0.368502
0.359214
0.374844
0.36135
0.3739
0.369228
0.366451
0.36544
0.37752
0.377801
0.360581
0.379332
0.350385
0.363699
0.360674
0.369146
0.37872
0.368726
0.362799
0.373819
0.36788
0.374525
0.368667
0.371038
0.363861
0.335597
0.368147
0.360862
0.376583
0.375375
0.367865
0.370198
0.387682
0.355105
0.378757
0.404359
0.396705
0.383372
0.366188
0.383384
0.354147
0.367281
0.356241
0.363713
0.376355
0.369922
0.363685
0.35489
0.372456
0.368988
0.383942
0.350201
0.357216
0.366972
0.381424
0.372231
0.37093
0.341986
0.372737
0.355807
0.373999
0.381082
0.364911
0.364872
0.370797
0.366846
0.375895
0.362611
0.355623
0.368753
0.353119
0.336953
0.366531
0.3761
0.366317
0.385561
0.376339
0.374517
0.374327
0.377319
0.357522
0.372688
0.346281
0.345605
0.354065
0.364545
0.344123
0.381905
0.368462
0.370241
0.369728
0.377066
0.347511
0.368795
0.364714
0.351165
0.377032
0.374701
0.352889
0.363556
0.373631
0.352286
0.37609
0.377693
0.379391
0.352696
0.34969
0.372359
0.361454
0.367437
0.350658
0.371237
0.374535
0.356342
0.380268
0.370005
0.378172
0.35774
0.367427
0.354824
0.348291
0.360247
0.362825
0.366243
0.370224
0.377194
0.380247
0.354184
0.362994
0.381628
0.357822
0.374849
0.350954
0.359434
0.36461
0.37595
0.376214
0.368313
0.364776
0.365558
0.353835
0.36054
0.360028
0.358695
0.372217
0.372915
0.373566
0.355749
0.355648
0.362206
0.356958
0.365787
0.37104
0.351723
0.36488
0.37374
0.369812
0.347416
0.356658
0.365752
0.367117
0.381664
0.374557
0.366277
0.347568
0.373216
0.382384
0.37856
0.368402
0.374203
0.404319
0.368474
0.350742
0.35677
0.365799
0.352003
0.374131
0.35045
0.343332
0.370704
0.371385
0.372734
0.374709
0.367727
0.354465
0.35625
0.378935
0.368296
0.355731
0.371992
0.368794
0.362251
0.356617
0.349776
0.377985
0.373457
0.361613
0.3556
0.366937
0.357676
0.376555
0.355324
0.35721
0.357764
0.369252
0.363488
0.360622
0.362159
0.353454
0.370655
0.363362
0.365332
0.367609
0.380837
0.38366
0.352879
0.369885
0.3537
0.337848
0.36771
0.367865
0.370248
0.370636
0.370882
0.370128
0.365468
0.364929
0.357233
0.365728
0.347618
0.375952
0.367143
0.353909
0.355724
0.350897
0.371471
0.374915
0.385164
0.363638
0.364231
0.390417
0.356156
0.347386
0.375393
0.356263
0.371326
0.363573
0.359945
0.377783
0.371968
0.358336
0.367659
0.364434
0.370419
0.380332
0.365284
0.364062
0.362405
0.390223
0.358329
0.369972
0.395873
0.352776
0.35461
0.365107
0.366715
0.386076
0.365249
0.376832
0.356073
0.350068
0.391073
0.359492
0.361605
0.367195
0.360574
0.37189
0.362325
0.383201
0.361158
0.375636
0.366877
0.364125
0.35891
0.388962
0.39172
0.364583
0.357672
0.358712
0.3673
0.368654
0.370529
0.380476
0.366321
0.383206
0.371371
0.382083
0.380209
0.358982
0.342771
0.3526
0.351495
0.37554
0.383041
0.366758
0.367717
0.369603
0.372598
0.350794
0.360099
0.369068
0.370118
0.358799
0.3664
0.358551
0.376387
0.379462
0.366714
0.379727
0.375889
0.364334
0.349477
0.363675
0.369282
0.375613
0.369445
0.370624
0.366446
0.361586
0.349985
0.368843
0.358004
0.369694
0.363032
0.366239
0.376447
0.373798
0.362367
0.358034
0.362337
0.378566
0.361554
0.353884
0.371376
0.364181
0.3638
0.344856
0.361967
0.359057
0.390702
0.358489
0.364545
0.36517
0.374091
0.355438
0.362793
0.369667
0.357039
0.372856
0.379694
0.361856
0.35755
0.370119
0.387627
0.368005
0.355992
0.359887
0.36497
0.363812
0.381701
0.372319
0.364432
0.37146
0.363398
0.381118
0.359016
0.349312
0.372376
0.369556
0.378479
0.380866
0.349366
0.388345
0.346554
0.341515
0.357985
0.345326
0.364065
0.377988
0.358895
0.349796
0.361224
0.356793
0.368349
0.35981
0.369166
0.369742
0.367366
0.35866
0.365604
0.36944
0.378171
0.361314
0.352719
0.358722
0.365126
0.369599
0.359381
0.360013
0.365513
0.382965
0.363999
0.351597
0.361031
0.366035
0.370419
0.352012
0.367439
0.367792
0.370935
0.380158
0.375264
0.360729
0.353405
0.357155
0.37066
0.372243
0.360352
0.373441
0.345763
0.367303
0.376283
0.376342
0.380899
0.37611
0.371404
0.365324
0.358873
0.356836
0.348158
0.373497
0.383238
0.381742
0.346701
0.363599
0.375895
0.364541
0.359921
0.355549
0.371214
0.376409
0.374679
0.379787
0.357495
0.366521
0.353672
0.357822
0.376805
0.369027
0.375324
0.364856
0.36104
0.368596
0.367306
0.364859
0.361307
0.369849
0.371577
0.360692
0.386279
0.368818
0.359145
0.339856
0.357807
0.38034
0.370071
0.379172
0.376417
0.36336
0.378311
0.368365
0.362424
0.373923
0.368402
0.357731
0.357501
0.365956
0.367615
0.380397
0.368493
0.360233
0.339003
0.366075
0.381126
0.372474
0.384476
0.359576
0.377152
0.349782
0.362498
0.362106
0.374083
0.375831
0.366749
0.362008
0.374855
0.369786
0.374719
0.36564
0.371295
0.357921
0.348775
0.37391
0.36419
0.350891
0.3736
0.382438
0.363784
0.36843
0.337577
0.364083
0.383183
0.366692
0.364311
0.357635
0.359451
0.374856
0.366448
0.357562
0.371063
0.360266
0.349304
0.366045
0.372499
0.356992
0.360935
0.361313
0.356822
0.372964
0.378661
0.367483
0.364215
0.366329
0.36836
0.38205
0.355104
0.382579
0.369494
0.363726
0.37942
0.355338
0.374593
0.379305
0.354957
0.360579
0.366591
0.363109
0.367201
0.366809
0.35681
0.365814
0.367278
0.386213
0.373356
0.354813
0.355606
0.351709
0.353298
0.351563
0.378638
0.348325
0.38495
0.37379
0.382881
0.361929
0.370626
0.364619
0.348635
0.349379
0.365575
0.370713
0.368751
0.362292
0.367105
0.357057
0.351337
0.355325
0.372006
0.351786
0.36844
0.367412
0.37022
0.366454
0.360737
0.360867
0.363061
0.385182
0.375246
0.356437
0.350808
0.358226
0.376824
0.353563
0.372218
0.382453
0.369208
0.377157
0.374355
0.365908
0.376361
0.3587
0.356569
0.386812
0.355162
0.363857
0.373581
0.363635
0.384408
0.354431
0.374843
0.377881
0.347506
0.349183
0.378297
0.377625
0.377078
0.361453
0.368271
0.373873
0.347369
0.345611
0.344245
0.370862
0.366022
0.377088
0.361053
0.384324
0.3626
0.352067
0.372223
0.370751
0.368017
0.375955
0.36822
0.350832
0.365393
0.379119
0.383707
0.364757
0.36809
0.380218
0.353982
0.363014
0.359294
0.34817
0.380006
0.380779
0.361663
0.366384
0.377026
0.385951
0.374144
0.362845
0.359282
0.341833
0.356038
0.38216
0.364889
0.364821
0.372847
0.375667
0.376116
0.356907
0.357708
0.382617
0.36332
0.386028
0.373356
0.363333
0.358655
0.371006
0.38696
0.366694
0.368516
0.376698
0.37247
0.366032
0.356085
0.358735
0.365003
0.377206
0.38287
0.367351
0.366373
0.35926
0.357225
0.361314
0.366513
0.369198
0.359175
0.35472
0.346179
SCALARS Coverage1 float 1
LOOKUP_TABLE default
0.218241
0.218241
0.206837
0.190803
0.201844
0.178131
0.186199
0.188238
0.198083
0.194307
0.18742
0.194693
0.194013
0.20743
0.213191
0.189
0.215574
0.193366
0.190192
0.192594
0.18632
0.178465
0.187889
0.195967
0.18616
0.194194
0.202322
0.19788
0.180267
0.199714
0.195449
0.208084
0.194934
0.189274
0.17781
0.194947
0.200766
0.205062
0.216395
0.18751
0.18421
0.19798
0.196977
0.210542
0.207903
0.198521
0.200539
0.194171
0.184122
0.182324
0.188512
0.19612
0.207452
0.20032
0.205662
0.186895
0.180969
0.185747
0.191489
0.194716
0.204921
0.213867
0.204495
0.194302
0.188076
0.189442
0.205935
0.219149
0.204506
0.194277
0.184614
0.182582
0.180151
0.184946
0.192489
0.198171
0.195519
0.196678
0.199173
0.183618
0.199765
0.198693
0.202775
0.197166
0.197765
0.203421
0.183526
0.186638
0.187134
0.183931
0.196159
0.195142
0.203274
0.217248
0.20674
0.212462
0.199749
0.182111
0.199958
0.19742
0.203935
0.205851
0.200502
0.195599
0.200688
0.204712
0.183638
0.18216
0.207795
0.194261
0.193188
0.210688
0.215128
0.193339
0.183951
0.194183
0.189693
0.181054
0.185136
0.194071
0.196133
0.197787
0.195477
0.216108
0.198648
0.17731
0.195254
0.206569
0.198554
0.197331
0.189824
0.194852
0.193018
0.186703
0.190529
0.200195
0.197812
0.179842
0.17947
0.188386
0.193374
0.185285
0.191025
0.200461
0.214144
0.204973
0.218235
0.19319
0.18697
0.204509
0.214849
0.195466
0.18715
0.194582
0.191023
0.199881
0.202051
0.197789
0.199933
0.186625
0.204828
0.200809
0.198786
0.187314
0.195289
0.187132
0.179554
0.193291
0.202097
0.211465
0.200073
0.194086
0.201672
0.185063
0.196146
0.186768
0.20326
0.194373
0.183402
0.222549
0.219506
0.192158
0.183964
0.181127
0.188458
0.204244
0.198398
0.197736
0.193642
0.192604
0.20075
0.185821
0.193444
0.202988
0.208497
0.183833
0.191175
0.20076
0.194596
0.213609
0.201042
0.191559
0.191564
0.205027
0.197228
0.1952
0.222629
0.211767
0.198941
0.197364
0.185946
0.184775
0.189289
0.187275
0.180993
0.18773
0.200685
0.198589
0.214573
0.2158
0.191563
0.21168
0.185156
0.174609
0.198191
0.183148
0.189679
0.201016
0.196924
0.195436
0.207835
0.19471
0.181205
0.187961
0.202129
0.192861
0.186445
0.185486
0.208546
0.202117
0.203825
0.195755
0.205733
0.202791
0.206195
0.190038
0.190532
0.185133
0.196717
0.192856
0.198471
0.19655
0.189823
0.196899
0.182251
0.193456
0.188596
0.176939
0.191836
0.195116
0.185825
0.20187
0.203408
0.200431
0.202853
0.208463
0.206817
0.191645
0.202444
0.203387
0.199921
0.192381
0.20728
0.19089
0.185999
0.207919
0.203571
0.195263
0.177053
0.195638
0.189086
0.200835
0.191991
0.185951
0.205978
0.200197
0.207255
0.20079
0.178868
0.191463
0.187471
0.227563
0.215628
0.170187
0.189436
0.208821
0.186762
0.198122
0.216334
0.195808
0.189159
0.200523
0.197033
0.179118
0.186998
0.192642
0.186793
0.202471
0.204088
0.200945
0.210178
0.197938
0.213376
0.191581
0.178924
0.199289
0.20256
0.194847
0.19394
0.19217
0.205638
0.210451
0.206492
0.175622
0.184316
0.218924
0.215798
0.196053
0.185966
0.177877
0.192325
0.208384
0.183464
0.198773
0.195196
0.195196
0.2489
0.230682
0.206779
0.204585
0.179065
0.197921
0.21665
0.207536
0.183346
0.175295
0.178606
0.194206
0.194944
0.211261
0.195947
0.209641
0.199928
0.194578
0.199242
0.198106
0.204537
0.188815
0.196608
0.192292
0.211868
0.196351
0.180206
0.199324
0.188599
0.19643
0.187631
0.198831
0.19134
0.181069
0.20977
0.215602
0.190818
0.194764
0.189995
0.190088
0.198405
0.189596
0.191533
0.189093
0.181536
0.201338
0.21756
0.201374
0.196281
0.188542
0.177036
0.195981
0.211726
0.204841
0.201223
0.177036
0.195609
0.190267
0.189986
0.194707
0.200099
0.205411
0.191571
0.191302
0.205636
0.19805
0.196528
0.188126
0.208217
0.18863
0.199788
0.207231
0.197033
0.205255
0.191178
0.176695
0.189157
0.199466
0.195067
0.19258
0.196274
0.218876
0.202261
0.19485
0.204496
0.20651
0.189554
0.184039
0.196671
0.188447
0.196061
0.201276
0.179868
0.185038
0.202487
0.192588
0.208106
0.204779
0.212018
0.199769
0.189783
0.203646
0.178802
0.198091
0.196037
0.20174
0.195646
0.186493
0.207607
0.207404
0.201004
0.197521
0.176415
0.180925
0.205092
0.203895
0.195211
0.184873
0.194998
0.186165
0.193294
0.209312
0.191437
0.206276
0.2061
0.194657
0.200116
0.207724
0.173789
0.201733
0.194845
0.177224
0.183582
0.18365
0.191954
0.197828
0.197629
0.205269
0.192005
0.183489
0.17579
0.206921
0.212577
0.206456
0.195869
0.20132
0.196248
0.20393
0.196492
0.172256
0.184127
0.203655
0.212466
0.20065
0.196137
0.200175
0.191966
0.188108
0.19079
0.189076
0.198466
0.190731
0.19926
0.203577
0.194584
0.212359
0.19552
0.193653
0.188243
0.19913
0.202444
0.190006
0.185451
0.185922
0.189128
0.196489
0.196619
0.189316
0.203019
0.200091
0.194145
0.201709
0.200157
0.189858
0.195536
0.201954
0.199723
0.198597
0.200699
0.18191
0.17926
0.183877
0.186686
0.201144
0.185785
0.204306
0.205653
0.200663
0.186617
0.207199
0.191783
0.201512
0.187679
0.184165
0.2133
0.204228
0.184232
0.194732
0.190329
0.185981
0.188395
0.191224
0.205033
0.208101
0.191512
0.190815
0.201052
0.208099
0.189698
0.187226
0.184316
0.210783
0.191067
0.182377
0.217669
0.217492
0.197036
0.189798
0.197915
0.204863
0.179053
0.182446
0.201851