# vtk DataFile Version 2.0
2D Surface
ASCII
DATASET UNSTRUCTURED_GRID
POINTS 2611 float
7.07739e-05 -2.592e-05 0. 
7.083e-05 -2.59238e-05 0. 
7.092e-05 -2.59225e-05 0. 
7.09544e-05 -2.592e-05 0. 
7.10842e-05 -2.592e-05 0. 
7.11e-05 -2.59209e-05 0. 
7.119e-05 -2.59219e-05 0. 
7.128e-05 -2.59237e-05 0. 
7.137e-05 -2.59332e-05 0. 
7.146e-05 -2.59389e-05 0. 
7.155e-05 -2.59421e-05 0. 
7.164e-05 -2.59469e-05 0. 
7.173e-05 -2.59543e-05 0. 
7.182e-05 -2.59619e-05 0. 
7.191e-05 -2.59623e-05 0. 
7.2e-05 -2.59544e-05 0. 
7.209e-05 -2.59619e-05 0. 
7.218e-05 -2.59603e-05 0. 
7.227e-05 -2.59657e-05 0. 
7.236e-05 -2.59712e-05 0. 
7.245e-05 -2.59783e-05 0. 
7.254e-05 -2.59889e-05 0. 
7.263e-05 -2.59903e-05 0. 
7.272e-05 -2.59848e-05 0. 
7.281e-05 -2.59758e-05 0. 
7.29e-05 -2.59838e-05 0. 
7.299e-05 -2.59908e-05 0. 
7.308e-05 -2.59865e-05 0. 
7.317e-05 -2.59859e-05 0. 
7.326e-05 -2.59791e-05 0. 
7.335e-05 -2.59851e-05 0. 
7.344e-05 -2.59845e-05 0. 
7.353e-05 -2.59756e-05 0. 
7.362e-05 -2.59796e-05 0. 
7.371e-05 -2.59873e-05 0. 
7.38e-05 -2.59881e-05 0. 
7.389e-05 -2.59866e-05 0. 
7.398e-05 -2.59896e-05 0. 
7.407e-05 -2.59891e-05 0. 
7.416e-05 -2.59959e-05 0. 
7.425e-05 -2.59993e-05 0. 
7.434e-05 -2.60024e-05 0. 
7.443e-05 -2.59993e-05 0. 
7.452e-05 -2.59918e-05 0. 
7.461e-05 -2.5994e-05 0. 
7.47e-05 -2.59948e-05 0. 
7.479e-05 -2.5996e-05 0. 
7.488e-05 -2.59979e-05 0. 
7.497e-05 -2.59888e-05 0. 
7.506e-05 -2.59901e-05 0. 
7.515e-05 -2.59935e-05 0. 
7.524e-05 -2.59968e-05 0. 
7.533e-05 -2.59948e-05 0. 
7.542e-05 -2.59921e-05 0. 
7.551e-05 -2.59826e-05 0. 
7.56e-05 -2.59807e-05 0. 
7.569e-05 -2.59806e-05 0. 
7.578e-05 -2.59867e-05 0. 
7.587e-05 -2.59912e-05 0. 
7.596e-05 -2.5985e-05 0. 
7.605e-05 -2.59891e-05 0. 
7.614e-05 -2.59884e-05 0. 
7.623e-05 -2.59865e-05 0. 
7.632e-05 -2.59814e-05 0. 
7.641e-05 -2.59841e-05 0. 
7.65e-05 -2.59843e-05 0. 
7.659e-05 -2.59841e-05 0. 
7.668e-05 -2.59934e-05 0. 
7.677e-05 -2.59927e-05 0. 
7.686e-05 -2.59934e-05 0. 
7.695e-05 -2.59881e-05 0. 
7.704e-05 -2.59872e-05 0. 
7.713e-05 -2.59855e-05 0. 
7.722e-05 -2.59895e-05 0. 
7.731e-05 -2.5998e-05 0. 
7.74e-05 -2.59958e-05 0. 
7.749e-05 -2.59954e-05 0. 
7.758e-05 -2.59951e-05 0. 
7.767e-05 -2.5987e-05 0. 
7.776e-05 -2.59897e-05 0. 
7.785e-05 -2.59866e-05 0. 
7.794e-05 -2.59896e-05 0. 
7.803e-05 -2.59922e-05 0. 
7.812e-05 -2.59808e-05 0. 
7.821e-05 -2.59735e-05 0. 
7.83e-05 -2.59753e-05 0. 
7.839e-05 -2.59713e-05 0. 
7.848e-05 -2.59671e-05 0. 
7.857e-05 -2.59587e-05 0. 
7.866e-05 -2.59562e-05 0. 
7.875e-05 -2.59476e-05 0. 
7.884e-05 -2.59485e-05 0. 
7.893e-05 -2.59411e-05 0. 
7.902e-05 -2.59397e-05 0. 
7.911e-05 -2.59417e-05 0. 
7.92e-05 -2.59419e-05 0. 
7.929e-05 -2.59376e-05 0. 
7.938e-05 -2.59306e-05 0. 
7.947e-05 -2.59285e-05 0. 
7.956e-05 -2.59256e-05 0. 
7.965e-05 -2.59229e-05 0. 
7.97004e-05 -2.592e-05 0. 
6.80291e-05 -2.583e-05 0. 
6.804e-05 -2.58314e-05 0. 
6.813e-05 -2.58342e-05 0. 
6.822e-05 -2.58375e-05 0. 
6.831e-05 -2.58351e-05 0. 
6.84e-05 -2.58404e-05 0. 
6.849e-05 -2.58487e-05 0. 
6.858e-05 -2.58579e-05 0. 
6.867e-05 -2.58608e-05 0. 
6.876e-05 -2.58639e-05 0. 
6.885e-05 -2.58651e-05 0. 
6.894e-05 -2.58684e-05 0. 
6.903e-05 -2.58692e-05 0. 
6.912e-05 -2.58664e-05 0. 
6.921e-05 -2.58837e-05 0. 
6.93e-05 -2.5891e-05 0. 
6.939e-05 -2.5889e-05 0. 
6.948e-05 -2.58963e-05 0. 
6.957e-05 -2.58993e-05 0. 
6.966e-05 -2.59002e-05 0. 
6.975e-05 -2.59032e-05 0. 
6.984e-05 -2.5908e-05 0. 
6.993e-05 -2.59075e-05 0. 
7.002e-05 -2.59039e-05 0. 
7.011e-05 -2.58999e-05 0. 
7.02e-05 -2.5899e-05 0. 
7.029e-05 -2.59043e-05 0. 
7.038e-05 -2.59071e-05 0. 
7.047e-05 -2.59137e-05 0. 
7.056e-05 -2.59091e-05 0. 
7.065e-05 -2.59128e-05 0. 
7.074e-05 -2.59177e-05 0. 
7.101e-05 -2.5916e-05 0. 
7.974e-05 -2.59177e-05 0. 
7.983e-05 -2.59176e-05 0. 
7.992e-05 -2.59041e-05 0. 
8.001e-05 -2.59006e-05 0. 
8.01e-05 -2.59047e-05 0. 
8.019e-05 -2.59022e-05 0. 
8.028e-05 -2.58959e-05 0. 
8.037e-05 -2.58942e-05 0. 
8.046e-05 -2.58908e-05 0. 
8.055e-05 -2.58861e-05 0. 
8.064e-05 -2.58882e-05 0. 
8.073e-05 -2.58816e-05 0. 
8.082e-05 -2.58738e-05 0. 
8.091e-05 -2.58712e-05 0. 
8.1e-05 -2.58631e-05 0. 
8.109e-05 -2.5853e-05 0. 
8.118e-05 -2.58503e-05 0. 
8.127e-05 -2.58527e-05 0. 
8.136e-05 -2.58468e-05 0. 
8.145e-05 -2.58487e-05 0. 
8.154e-05 -2.58505e-05 0. 
8.163e-05 -2.58493e-05 0. 
8.172e-05 -2.5851e-05 0. 
8.181e-05 -2.58451e-05 0. 
8.19e-05 -2.58335e-05 0. 
8.199e-05 -2.58349e-05 0. 
8.20539e-05 -2.583e-05 0. 
6.61084e-05 -2.574e-05 0. 
6.615e-05 -2.57471e-05 0. 
6.624e-05 -2.57514e-05 0. 
6.633e-05 -2.5757e-05 0. 
6.642e-05 -2.57634e-05 0. 
6.651e-05 -2.57683e-05 0. 
6.66e-05 -2.57676e-05 0. 
6.669e-05 -2.57707e-05 0. 
6.678e-05 -2.57755e-05 0. 
6.687e-05 -2.5778e-05 0. 
6.696e-05 -2.5777e-05 0. 
6.705e-05 -2.57722e-05 0. 
6.714e-05 -2.57813e-05 0. 
6.723e-05 -2.57916e-05 0. 
6.732e-05 -2.57928e-05 0. 
6.741e-05 -2.57878e-05 0. 
6.75e-05 -2.57856e-05 0. 
6.759e-05 -2.57912e-05 0. 
6.768e-05 -2.57907e-05 0. 
6.777e-05 -2.57957e-05 0. 
6.786e-05 -2.58112e-05 0. 
6.795e-05 -2.58202e-05 0. 
8.208e-05 -2.5828e-05 0. 
8.217e-05 -2.5822e-05 0. 
8.226e-05 -2.58206e-05 0. 
8.235e-05 -2.58144e-05 0. 
8.244e-05 -2.58073e-05 0. 
8.253e-05 -2.58007e-05 0. 
8.262e-05 -2.57949e-05 0. 
8.271e-05 -2.57942e-05 0. 
8.28e-05 -2.57865e-05 0. 
8.289e-05 -2.57783e-05 0. 
8.298e-05 -2.57756e-05 0. 
8.307e-05 -2.57687e-05 0. 
8.316e-05 -2.57644e-05 0. 
8.325e-05 -2.57611e-05 0. 
8.334e-05 -2.57529e-05 0. 
8.343e-05 -2.57433e-05 0. 
8.352e-05 -2.57469e-05 0. 
8.361e-05 -2.57427e-05 0. 
8.36474e-05 -2.574e-05 0. 
6.48307e-05 -2.565e-05 0. 
6.489e-05 -2.56571e-05 0. 
6.498e-05 -2.56612e-05 0. 
6.507e-05 -2.5667e-05 0. 
6.516e-05 -2.56727e-05 0. 
6.525e-05 -2.56779e-05 0. 
6.534e-05 -2.56909e-05 0. 
6.543e-05 -2.57042e-05 0. 
6.552e-05 -2.571e-05 0. 
6.561e-05 -2.57147e-05 0. 
6.57e-05 -2.57202e-05 0. 
6.579e-05 -2.57189e-05 0. 
6.588e-05 -2.57195e-05 0. 
6.597e-05 -2.57205e-05 0. 
6.606e-05 -2.57318e-05 0. 
8.37e-05 -2.57362e-05 0. 
8.379e-05 -2.57299e-05 0. 
8.388e-05 -2.57211e-05 0. 
8.397e-05 -2.57119e-05 0. 
8.406e-05 -2.57109e-05 0. 
8.415e-05 -2.5702e-05 0. 
8.424e-05 -2.56919e-05 0. 
8.433e-05 -2.56906e-05 0. 
8.442e-05 -2.56847e-05 0. 
8.451e-05 -2.56685e-05 0. 
8.46e-05 -2.56612e-05 0. 
8.469e-05 -2.56585e-05 0. 
8.47796e-05 -2.565e-05 0. 
6.37489e-05 -2.556e-05 0. 
6.381e-05 -2.55662e-05 0. 
6.39e-05 -2.55786e-05 0. 
6.399e-05 -2.55851e-05 0. 
6.408e-05 -2.55888e-05 0. 
6.417e-05 -2.55968e-05 0. 
6.426e-05 -2.56087e-05 0. 
6.435e-05 -2.5617e-05 0. 
6.444e-05 -2.56212e-05 0. 
6.453e-05 -2.56205e-05 0. 
6.462e-05 -2.56221e-05 0. 
6.471e-05 -2.56368e-05 0. 
6.48e-05 -2.56463e-05 0. 
8.478e-05 -2.565e-05 0. 
8.487e-05 -2.56422e-05 0. 
8.496e-05 -2.56344e-05 0. 
8.505e-05 -2.56287e-05 0. 
8.514e-05 -2.56282e-05 0. 
8.523e-05 -2.56219e-05 0. 
8.532e-05 -2.56171e-05 0. 
8.541e-05 -2.56112e-05 0. 
8.55e-05 -2.56067e-05 0. 
8.559e-05 -2.55921e-05 0. 
8.568e-05 -2.55869e-05 0. 
8.577e-05 -2.55824e-05 0. 
8.586e-05 -2.55742e-05 0. 
8.595e-05 -2.55705e-05 0. 
8.604e-05 -2.55655e-05 0. 
8.613e-05 -2.55655e-05 0. 
8.622e-05 -2.5563e-05 0. 
8.62618e-05 -2.556e-05 0. 
6.27339e-05 -2.547e-05 0. 
6.282e-05 -2.54763e-05 0. 
6.291e-05 -2.54852e-05 0. 
6.3e-05 -2.54929e-05 0. 
6.309e-05 -2.54957e-05 0. 
6.318e-05 -2.55e-05 0. 
6.327e-05 -2.55072e-05 0. 
6.336e-05 -2.55189e-05 0. 
6.345e-05 -2.55321e-05 0. 
6.354e-05 -2.55409e-05 0. 
6.363e-05 -2.55463e-05 0. 
6.372e-05 -2.5557e-05 0. 
8.631e-05 -2.55565e-05 0. 
8.64e-05 -2.55525e-05 0. 
8.649e-05 -2.55442e-05 0. 
8.658e-05 -2.55327e-05 0. 
8.667e-05 -2.55156e-05 0. 
8.676e-05 -2.55091e-05 0. 
8.685e-05 -2.54982e-05 0. 
8.694e-05 -2.54901e-05 0. 
8.703e-05 -2.54779e-05 0. 
8.712e-05 -2.54735e-05 0. 
8.71497e-05 -2.547e-05 0. 
6.19196e-05 -2.538e-05 0. 
6.192e-05 -2.53801e-05 0. 
6.201e-05 -2.53954e-05 0. 
6.21e-05 -2.54013e-05 0. 
6.219e-05 -2.54131e-05 0. 
6.228e-05 -2.54195e-05 0. 
6.237e-05 -2.54368e-05 0. 
6.246e-05 -2.54535e-05 0. 
6.255e-05 -2.54628e-05 0. 
6.264e-05 -2.54626e-05 0. 
6.273e-05 -2.54697e-05 0. 
8.721e-05 -2.54629e-05 0. 
8.73e-05 -2.5458e-05 0. 
8.739e-05 -2.54503e-05 0. 
8.748e-05 -2.54436e-05 0. 
8.757e-05 -2.54346e-05 0. 
8.766e-05 -2.54273e-05 0. 
8.775e-05 -2.54221e-05 0. 
8.784e-05 -2.54149e-05 0. 
8.793e-05 -2.54034e-05 0. 
8.802e-05 -2.53881e-05 0. 
8.81037e-05 -2.538e-05 0. 
6.15356e-05 -2.529e-05 0. 
6.156e-05 -2.53006e-05 0. 
6.165e-05 -2.53304e-05 0. 
6.174e-05 -2.53475e-05 0. 
6.183e-05 -2.53672e-05 0. 
8.811e-05 -2.53794e-05 0. 
8.82e-05 -2.53606e-05 0. 
8.829e-05 -2.53531e-05 0. 
8.838e-05 -2.53175e-05 0. 
8.847e-05 -2.53238e-05 0. 
8.85056e-05 -2.529e-05 0. 
6.14119e-05 -2.52e-05 0. 
6.147e-05 -2.52603e-05 0. 
8.856e-05 -2.52384e-05 0. 
8.85984e-05 -2.52e-05 0. 
6.13625e-05 -2.511e-05 0. 
6.138e-05 -2.51419e-05 0. 
8.86364e-05 -2.511e-05 0. 
6.13499e-05 -2.502e-05 0. 
8.86464e-05 -2.502e-05 0. 
6.13455e-05 -2.493e-05 0. 
8.86484e-05 -2.493e-05 0. 
6.13463e-05 -2.484e-05 0. 
8.865e-05 -2.48721e-05 0. 
8.86509e-05 -2.484e-05 0. 
6.13439e-05 -2.475e-05 0. 
8.86508e-05 -2.475e-05 0. 
6.13485e-05 -2.466e-05 0. 
8.86542e-05 -2.466e-05 0. 
6.13443e-05 -2.457e-05 0. 
8.86521e-05 -2.457e-05 0. 
6.13471e-05 -2.448e-05 0. 
8.86534e-05 -2.448e-05 0. 
6.13454e-05 -2.439e-05 0. 
8.86557e-05 -2.439e-05 0. 
6.13444e-05 -2.43e-05 0. 
8.86535e-05 -2.43e-05 0. 
6.135e-05 -2.421e-05 0. 
8.86541e-05 -2.421e-05 0. 
6.13494e-05 -2.412e-05 0. 
8.86584e-05 -2.412e-05 0. 
6.13436e-05 -2.403e-05 0. 
8.86601e-05 -2.403e-05 0. 
6.1344e-05 -2.394e-05 0. 
8.86577e-05 -2.394e-05 0. 
6.13446e-05 -2.385e-05 0. 
8.86609e-05 -2.385e-05 0. 
6.13439e-05 -2.376e-05 0. 
8.86662e-05 -2.376e-05 0. 
6.13459e-05 -2.367e-05 0. 
8.86632e-05 -2.367e-05 0. 
6.1341e-05 -2.358e-05 0. 
8.86584e-05 -2.358e-05 0. 
6.13439e-05 -2.349e-05 0. 
8.86603e-05 -2.349e-05 0. 
6.13377e-05 -2.34e-05 0. 
8.86573e-05 -2.34e-05 0. 
6.13356e-05 -2.331e-05 0. 
8.86552e-05 -2.331e-05 0. 
6.13392e-05 -2.322e-05 0. 
8.86571e-05 -2.322e-05 0. 
6.13413e-05 -2.313e-05 0. 
[...]
POINT_DATA 2611
SCALARS Coverage0 float 1
LOOKUP_TABLE default
0.2532
0.250941
0.243734
0.243734
0.272814
0.272814
0.263582
0.260751
0.26489
0.255446
0.25309
0.243239
0.258213
0.252192
0.274578
0.263161
0.239411
0.249338
0.250875
0.278605
0.249396
0.25443
0.250496
0.244813
0.257518
0.253109
0.241192
0.264496
0.271425
0.249456
0.233421
0.234989
0.2691
0.280705
0.251792
0.244792
0.250626
0.208543
0.214033
0.228727
0.232633
0.234548
0.243747
0.239014
0.256076
0.2662
0.256206
0.241357
0.261351
0.268686
0.25462
0.240305
0.246301
0.237417
0.23868
0.259562
0.241949
0.248289
0.278986
0.236532
0.234657
0.249005
0.265053
0.244066
0.256832
0.267163
0.254279
0.250702
0.248248
0.264703
0.239912
0.248782
0.249358
0.259237
0.245922
0.25207
0.244259
0.234355
0.253974
0.283173
0.260662
0.24879
0.237466
0.254198
0.248524
0.2439
0.23815
0.250814
0.242083
0.266868
0.251946
0.234214
0.250445
0.242298
0.236685
0.256017
0.239428
0.247685
0.265825
0.250429
0.248904
0.274372
0.240703
0.240703
0.237294
0.230691
0.25601
0.270889
0.270844
0.270087
0.234272
0.228429
0.259885
0.258612
0.280535
0.269767
0.261735
0.270383
0.238565
0.228908
0.249796
0.24464
0.241454
0.240735
0.259674
0.238162
0.255035
0.242115
0.252901
0.277602
0.313423
0.276872
0.249771
0.2532
0.272435
0.274372
0.262219
0.280889
0.270506
0.278019
0.275267
0.252488
0.235357
0.262834
0.266775
0.252579
0.253021
0.244576
0.241608
0.256044
0.239352
0.227024
0.250133
0.259036
0.239367
0.248223
0.237471
0.243847
0.279002
0.268959
0.239258
0.247181
0.249708
0.249708
0.248086
0.246912
0.239514
0.248414
0.238423
0.247155
0.255999
0.25397
0.22554
0.226355
0.241923
0.24118
0.240311
0.23457
0.240822
0.212117
0.240246
0.238665
0.237803
0.253492
0.247181
0.250857
0.245287
0.232515
0.250941
0.255912
0.250512
0.219919
0.217448
0.231184
0.279306
0.217709
0.210654
0.229236
0.24118
0.232174
0.204175
0.21518
0.21518
0.241838
0.252457
0.239865
0.239477
0.265109
0.263433
0.23263
0.24148
0.232323
0.231956
0.265446
0.235004
0.201063
0.247806
0.251496
0.230761
0.23811
0.253902
0.263257
0.256525
0.253485
0.239182
0.201449
0.2607
0.257911
0.27565
0.260002
0.227477
0.258336
0.265031
0.249246
0.212601
0.233334
0.237362
0.257477
0.268944
0.255452
0.235813
0.219506
0.221171
0.241838
0.227477
0.258162
0.252739
0.239237
0.224507
0.225315
0.205883
0.207887
0.21047
0.227215
0.240158
0.252959
0.234977
0.217788
0.221961
0.234428
0.233303
0.233303
0.213041
0.207754
0.207408
0.231329
0.226031
0.199202
0.213944
0.227985
0.244426
0.241257
0.231484
0.258336
0.232859
0.239564
0.241634
0.235536
0.244563
0.246131
0.230371
0.220284
0.220319
0.204207
0.204207
0.242029
0.242029
0.25172
0.254665
0.251556
0.222682
0.222826
0.236635
0.235703
0.260095
0.213041
0.222037
0.246935
0.251412
0.250371
0.235384
0.225769
0.245194
0.245293
0.235256
0.271432
0.238048
0.274666
0.274666
0.261869
0.244686
0.261641
0.238048
0.246441
0.23268
0.271367
0.301105
0.301105
0.422791
0.311781
0.372092
0.372092
0.6718
0.6718
0.623827
0.870091
0.860647
0.610047
0.95026
0.564886
0.952392
0.952392
0.961667
0.91144
0.935909
0.981315
0.794946
0.976253
0.987081
0.729434
0.928509
0.887839
1
0.976729
1
0.753045
0.708857
0.853928
0.894027
0.915733
0.997465
0.916635
0.888324
0.822196
0.960088
0.941031
0.963014
0
0.837274
0
0.915041
0.995401
0.908903
1
0.995298
0.995465
0.997472
0.230601
0
0.511539
0.949434
0.857989
0.947686
1
0.913963
0.967962
0.967962
0.933069
0.967962
0.870378
0.999014
0.995851
1
0.999037
0
0.82251
0
0.902396
0.908198
0.967285
0.76831
0.949907
0.724797
0
0.88367
0
0.957521
0.799881
0.968552
0.8504
0.225861
0.832267
0.817414
0.913292
0.74265
1
0
1
0.982906
1
0.885865
0.968894
0.886088
0.965777
1
0.886088
0.903899
1
1
1
0
0.932708
0.979712
1
0.911389
0
0.861292
0.760452
0.962712
0.760452
0
1
1
1
0.692115
1
0.843083
1
0.943907
0.943907
1
0
1
0
0.792426
1
0.807543
0.792426
0.994964
0.98446
0.936761
1
0.83354
0.7786
0.725945
0.871827
0
0.969152
0
0.871973
0.719003
0
0
0.803382
0
1
0.788769
0.896902
0.837872
0.837872
1
1
0
1
1
1
0
0
0
0
0.901234
0
0
1
0.781209
0.781209
1
1
0
1
0
1
1
1
1
0
0.981139
0
0.778317
0.759538
0.778317
0.8048
0.793141
0.883619
0.821432
0.872421
1
0.821432
1
0
0.965898
0.777543
0.662079
0.662079
0.782773
1
0
0
1
0
1
0
0.877165
1
0.877165
0
1
1
0
1
0
0.986072
1
1
1
0.672196
1
1
0.790379
0.897768
0
0.897768
1
0
0
0
1
1
1
1
1
1
1
1
0.804186
0
0.831959
0
1
1
0
0.979431
0.979431
1
0
0.838007
0.838007
0.979431
0.901839
0.931316
0.930744
0.78594
0.930744
0.889305
1
0
1
1
1
0.931587
1
0.931587
0.672617
1
1
1
1
1
1
1
1
0
0
1
1
1
1
1
0
1
0
1
0.716258
0
1
0
1
1
1
1
0
0.698672
0.698672
0
0.803545
0.698672
1
0
0
0.823842
0.823842
1
1
1
0
1
1
0
1
0
0.912598
0.912598
0
0.953164
0.912598
0.988565
1
0
0.953164
0.988565
0
0
1
1
1
1
0
1
0
1
1
1
1
0
1
0.971335
0.971335
1
0.981801
0.939053
0.939053
0.971335
0
1
1
0.865151
0.865151
0.981801
0.939053
0
0
1
0.865151
0.817707
0
0.862046
0.862046
0
0
0
0.87988
1
1
0
0
0
0
0
0
1
1
0
0
1
1
1
1
0.92581
0.92581
0
1
1
1
1
1
0.92581
0
1
0.875549
1
1
0
0
0
0.875549
0
0
0
0.824303
0.824303
0.905037
0
0
0
0.824303
0.905037
0.77069
1
1
0.77069
0.910908
1
1
1
0
0
1
0.539883
0.539883
0
1
1
0.539883
0
0
0.780389
0
0.831046
0.831046
0
0
0
1
1
0
1
0
0.871517
0.871517
0.930215
1
1
0.871517
1
1
1
0
0
1
0.982972
0.982972
0
0
0
0
0.982972
0
0
0
0
0
0
0
1
0.953938
0.953938
0
1
0.953938
0.922717
1
0.973635
0.973635
0.922717
0
0
0.834594
0.834594
0.973635
0
0.884537
1
0
0
1
0
1
0
1
0
1
1
0.763403
1
1
0.653669
0.653669
1
1
0
0
1
0.956249
0.956249
1
1
0.956249
0
1
1
0
1
1
1
0.797331
1
0.941355
0.797331
1
1
0
0
0.924131
0.924131
1
0
0.924131
0.639588
1
0.639588
0
0
1
0.835623
0.835623
0
0
1
0.835623
0.701265
0
0.701265
0.683426
1
1
0
1
1
1
0
0
1
1
1
0
1
1
0
0
0.66121
0.66121
1
0.774852
0.66121
0.794286
0.794286
0
0.774852
0
0
0.874148
1
1
0.874148
1
0
0.997987
0.997987
0
0.815797
0.997987
0
0
0.712397
0.983918
0.983918
0.730967
0.730967
0.983918
1
0
0
1
0
0
0
0
1
0
0
1
0
0
0
1
1
0.776085
1
0.776085
1
1
1
1
0
0.983106
0.983106
0
1
1
1
0.607257
0.983106
1
1
1
0
0
0
0
0
0
0
1
1
1
1
0
1
1
0
1
0
1
1
0
0.754678
0
0
0
1
0
0
0
0
1
1
1
1
0.97858
1
0.97858
0
0.879885
0.97858
1
1
0
0.879885
0
0
1
1
1
0.914287
1
1
1
1
1
0.914287
0.991861
0.991861
1
1
0.991861
0.35751
0.790508
0
0.807729
1
0.904262
0.904262
1
1
0
0
0
1
0.895715
0
1
1
1
0
0.895715
1
0
0
0.888885
0.888885
1
0
0
0.888885
0.609154
0
1
0
0
0.609154
0
0
0
0
0
0
1
1
1
1
1
1
0
0.993402
0.993402
0
0
1
0.993476
1
0.993476
0.993402
0
0
0
0.90374
0.993476
1
1
1
1
1
0.90374
0
0
1
0
0
1
1
0
1
1
1
0
0
0
0.660529
1
1
0.660529
0.995295
0.995295
1
1
1
0
0.995295
1
1
1
1
1
1
0.858407
0.858407
1
1
0.805353
0.841616
0.858407
1
1
1
0
0
0
0.806494
1
1
0.806494
0.813695
1
1
1
1
1
0.972191
0.972191
0.882343
0
0.972191
0.882343
0.880448
0.880448
0
0.666804
0
0.964159
0.964159
0.828814
0.828814
0
0.780661
0.964159
0
0
1
0
0.975518
0.975518
1
0
1
0.975518
1
0
0
0
0
0
0.857133
0
0.883963
0.883963
0.833529
0.833529
1
0.883963
1
0
1
1
1
1
1
1
1
1
1
0
0
0.99391
0.99391
0.714995
0.960807
0.99391
0.714995
0.796592
0
0
1
0.960807
1
0
0
0.701675
0.701675
1
0
0
0.701675
0.4039
0.89097
1
1
0
0.823894
1
1
0.84391
0
0.805406
0.805406
1
0
0
0.812926
1
0
0.812926
0
0
0
1
0.914187
0.914187
0
0
1
0.914187
0.905578
1
0.996753
0.995479
0.995479
0.867527
0.842923
0.842923
0.996753
0.995479
0.867527
0.836987
0.868778
0.806137
0.806137
1
1
0.868778
1
1
0
0.944657
0.944657
0.834514
0.834514
1
0.714103
0.714103
0.459505
0.944657
0.834514
0.737773
0.737773
1
0.842777
0
0.964275
0.964275
0.905994
0.750966
0.750966
0.00321973
0.964275
0
0.750966
0.610707
0.642512
0.374355
0.364743
0.36614
0.364019
0.36064
0.362207
0.36266
0.370339
0.34859
0.369857
0.382731
0.364348
0.365818
0.374075
0.370392
0.363656
0.365115
0.35505
0.369457
0.373947
0.360729
0.364458
0.357537
0.352605
0.365776
0.363785
0.363661
0.366369
0.356838
0.364799
0.367102
0.354612
0.372677
0.359615
0.363258
0.356899
0.365463
0.368901
0.358451
0.348432
0.372216
0.367087
0.351383
0.363062
0.372229
0.375608
0.365688
0.34773
0.357638
0.357943
0.366377
0.352303
0.373136
0.389781
0.357408
0.365227
0.375391
0.356918
0.368846
0.367929
0.387548
0.371414
0.388212
0.362023
0.34953
0.369552
0.371633
0.36482
0.358292
0.374962
0.362692
0.347145
0.386501
0.365363
0.380001
0.380024
0.364432
0.37342
0.353139
0.364417
0.345878
0.362109
0.374128
0.360918
0.365285
0.385424
0.37077
0.357543
0.360973
0.375443
0.359532
0.370909
0.361937
0.355299
0.367848
0.388589
0.347861
0.363912
0.382538
0.366589
0.367271
0.374309
0.360632
0.387143
0.360537
0.358077
0.358657
0.352829
0.363199
0.378949
0.356695
0.356664
0.403436
0.368425
0.362875
0.376
0.367639
0.362854
0.351839
0.364648
0.376308
0.360321
0.367657
0.360565
0.364837
0.374974
0.380461
0.367257
0.363697
0.37355
0.373708
0.364569
0.35765
0.359251
0.356131
0.357277
0.374327
0.383975
0.374934
0.341325
0.375309
0.379511
0.376521
0.376237
0.374296
0.357177
0.362294
0.354522
0.358536
0.357525
0.367688
0.385071
0.375376
0.35639
0.367172
0.382004
0.370203
0.37014
0.377627
0.369299
0.356298
0.38617
0.370294
0.344057
0.346527
0.342653
0.359242
0.355047
0.374471
0.360144
0.375497
0.362092
0.364944
0.35627
0.376025
0.381347
0.36212
0.35423
0.367356
0.353559
0.364616
0.361958
0.354281
0.381756
0.389292
0.369459
0.372154
0.363068
0.363424
0.356126
0.363623
0.350748
0.370251
0.36962
0.382244
0.357162
0.370545
0.372181
0.372612
0.355804
0.36849
0.360049
0.366419
0.355773
0.36663
0.362975
0.341727
0.361095
0.372998
0.375063
0.38592
0.386025
0.373594
0.374029
0.364156
0.354892
0.370517
0.386483
0.374199
0.350022
0.353575
0.360604
0.37767
0.365035
0.37628
0.38185
0.359287
0.385111
0.372626
0.350359
0.371953
0.352066
0.369343
0.375333
0.356832
0.370908
0.36471
0.362848
0.377848
0.360838
0.370825
0.367976
0.358071
0.361385
0.365559
0.356397
0.375823
0.366019
0.381839
0.358097
0.355461
0.39156
0.361655
0.380327
0.365621
0.365686
0.365815
0.376927
0.371085
0.347966
0.370172
0.375789
0.357604
0.372407
0.387703
0.364428
0.360064
0.356458
0.359935
0.364433
0.37603
0.363562
0.37201
0.369534
0.367594
0.342185
0.348755
0.366991
0.410235
0.393176
0.343905
0.354904
0.355933
0.375074
0.374968
0.369264
0.355129
0.362447
0.364683
0.358909
0.359906
0.367197
0.358522
0.358718
0.372974
0.360612
0.372256
0.379436
0.355796
0.370849
0.371056
0.383716
0.35974
0.351125
0.395368
0.373711
0.365325
0.36997
0.381861
0.352177
0.371955
0.374147
0.368978
0.372963
0.378981
0.372917
0.368107
0.375639
0.355335
0.370854
0.348315
0.377246
0.361901
0.357646
0.363983
0.372506
0.363215
0.345687
0.356832
0.359169
0.37282
0.380798
0.345231
0.361309
0.353815
0.355198
0.365994
0.368481
0.367321
0.356837
0.383292
0.369228
0.369583
0.354106
0.3694
0.359011
0.37561
0.378526
0.364515
0.376588
0.359263
0.359434
0.376466
0.359169
0.357984
0.379799
0.377843
0.3532
0.373939
0.362591
0.342151
0.352629
0.383004
0.370038
0.354148
0.366235
0.352855
0.38345
0.390737
0.363008
0.377713
0.356486
0.359818
0.370531
0.367953
0.386946
0.374627
0.375395
0.373369
0.359625
0.353345
0.37611
0.366704
0.371643
0.3705
0.356373
0.355814
0.347519
0.383104
0.371025
0.36493
0.366738
0.364264
0.367677
0.359636
0.37991
0.386529
0.374993
0.348238
0.368188
0.357622
0.372047
0.350199
0.356093
0.375937
0.362387
0.373323
0.3939
0.36618
0.361121
0.361458
0.360648
0.375353
0.376672
0.358371
0.348102
0.355597
0.369593
0.401895
0.361244
0.377337
0.364336
0.352399
0.363678
0.383738
0.365943
0.353087
0.352797
0.385013
0.377371
0.374651
0.361805
0.349415
0.36134
0.379774
0.376226
0.375394
0.367821
0.353456
0.369903
0.374678
0.361089
0.357986
0.372765
0.352365
0.354192
0.361152
0.356931
0.365155
0.361999
0.366791
0.376524
0.376894
0.375592
0.38294
0.367205
0.349259
0.356641
0.370886
0.399361
0.366572
0.375164
0.366202
0.365325
0.36792
0.368242
0.369025
0.367196
0.357514
0.373894
0.379169
0.371039
0.361758
0.353371
0.35897
0.381087
0.379428
0.362907
0.35914
0.352886
0.364995
0.350903
0.3588
0.358176
0.381591
0.373721
0.356614
0.362957
0.353845
0.365254
0.375705
0.380212
0.368539
0.352467
0.357836
0.381763
0.357007
0.365048
0.362318
0.380769
0.383616
0.367602
0.357536
0.364783
0.352919
0.371994
0.371987
0.363214
0.388688
0.353847
0.367359
0.378421
0.361315
0.363853
0.367473
0.355229
0.369751
0.372467
0.373706
0.360562
0.369678
0.37566
0.372893
0.367547
0.341659
0.356273
0.36035
0.355474
0.370856
0.379243
0.36237
0.353651
0.379422
0.363837
0.357106
0.364531
0.37237
0.361207
0.359052
0.367072
0.38383
0.375601
0.386503
0.363056
0.354555
0.356159
0.356886
0.382885
0.386827
0.35425
0.352633
0.36988
0.369207
0.376952
0.35296
0.350373
0.370741
0.375248
0.365552
0.356541
0.36086
0.368856
0.347885
0.360925
0.37326
0.368529
0.366926
0.380363
0.360324
0.355603
0.370299
0.35942
0.368995
0.369343
0.376609
0.369737
0.353695
0.363872
0.373703
0.383311
0.383883
0.364214
0.375978
0.356998
0.356402
0.380244
0.340815
0.332593
0.36604
0.382602
0.377521
0.367033
0.34707
0.362643
0.36533
0.348239
0.344915
0.367731
0.39911
0.375525
0.371907
0.376533
0.378067
0.343218
0.364929
0.355687
0.358817
0.357124
0.365987
0.383494
0.371627
0.368928
0.371939
0.370923
0.368322
0.369751
0.348261
0.335345
0.364224
0.364428
0.359963
0.366731
0.384572
0.360421
0.360294
0.344828
0.351606
0.377263
0.355398
0.351394
0.351582
0.366626
0.374832
0.366581
0.358511
0.370194
0.360538
0.363742
0.357726
0.368883
0.373211
0.357627
0.353983
0.353066
0.365267
0.366297
0.3819
0.378839
0.394804
0.368446
0.369483
0.366497
0.355795
0.343521
0.369214
0.352837
0.368183
0.369525
0.361022
0.370964
0.364913
0.382757
0.382654
0.360845
0.362281
0.386768
0.404516
0.367586
0.372313
0.385894
0.359284
0.361848
0.373119
0.341231
0.351792
0.36961
0.365093
0.36685
0.37307
0.358076
0.351399
0.363302
0.370095
0.360084
0.359359
0.37986
0.36248
0.353173
0.370122
0.373951
0.363276
0.362351
0.369493
0.346045
0.351251
0.362707
0.364732
0.358682
0.374176
0.376077
0.365269
0.377882
0.351944
0.376481
0.358528
0.35241
0.375233
0.361542
0.349671
0.359896
0.373435
0.361096
0.353804
0.371922
0.356609
0.361357
0.366165
0.367147
0.366482
0.364134
0.36686
0.371993
0.379759
0.366105
0.368159
0.355687
0.356812
0.371102
0.376386
0.358828
0.364103
0.361427
0.350239
0.379658
0.376683
0.366208
0.359523
0.362488
0.369269
0.373365
0.378998
0.386062
0.357529
0.372865
0.361226
0.366105
0.37842
0.377021
0.3652
0.355321
0.355001
0.385288
0.345956
0.358941
0.371524
0.384741
0.380071
0.359407
0.373152
0.377011
0.366111
0.363705
0.348828
0.3577
0.401017
0.378197
0.354887
0.340835
0.373896
0.367583
0.362053
0.384746
0.375369
0.363251
0.353295
0.367976
0.369309
0.369137
0.341475
0.370459
0.380248
0.374261
0.353246
0.363094
0.379465
0.372669
0.377829
0.358278
0.371334
0.346937
0.349656
0.37909
0.358187
0.362707
0.37181
0.371473
0.37523
0.358966
0.372823
0.365031
0.36364
0.369769
0.363105
0.372519
0.366768
0.368298
0.360231
0.365837
0.36064
0.374391
0.374654
0.359442
0.368853
0.352848
0.370935
0.36796
0.368144
0.34959
0.361128
0.372485
0.37426
0.3576
0.358765
0.38816
0.361409
0.34455
0.369378
0.358795
0.36918
0.374993
0.358224
0.364863
0.373996
0.367869
0.37466
0.357651
0.363704
0.351646
0.378053
0.374189
0.356694
0.369228
0.374829
0.370086
0.367839
0.364602
0.360594
0.368188
0.354155
0.348849
0.339253
0.372931
0.370942
0.357252
0.355847
0.401124
0.36907
0.366622
0.387879
0.375117
0.356175
0.371908
0.360535
0.387159
0.381068
0.370059
0.358348
0.369435
0.3659
0.367415
0.351064
0.371374
0.376159
0.377013
0.364317
0.374422
0.36449
0.353039
0.36382
0.357545
0.362567
0.366819
0.355976
0.356853
0.383378
0.365759
0.357529
0.364383
0.367564
0.369498
0.368637
0.375062
0.370375
0.376008
0.370906
0.366095
0.367973
0.373154
0.369064
0.361574
0.375639
0.349835
0.355572
0.384292
0.347004
0.36797
0.354595
0.353942
0.3683
0.362024
0.359506
0.361967
0.381402
0.373139
0.370418
0.36729
0.374954
0.33998
0.357107
0.386073
0.380708
0.378664
0.361383
0.358944
0.35953
0.366127
0.382236
0.36464
0.347023
0.355673
0.37279
0.37972
0.353454
0.34633
0.3666
0.390272
0.358872
0.358916
0.375397
0.378154
0.366766
0.369738
0.35221
0.377708
0.363145
0.366387
0.380166
0.364542
0.343062
0.357502
0.369756
0.37725
0.357838
0.362951
0.357073
0.366099
0.347292
0.380405
0.382643
0.352384
0.348715
0.380978
0.374808
0.356647
0.377415
0.369417
0.366444
0.368737
0.378651
0.373855
0.373597
0.359253
0.354375
0.358618
0.355525
0.359757
0.377134
0.378072
0.350192
0.348697
0.360244
0.37384
0.381647
0.38252
0.36901
0.378924
0.375937
0.352872
0.350785
0.383906
0.373098
0.344612
0.371752
0.38367
0.378254
0.359632
0.343712
0.361246
0.38046
0.391026
0.353904
0.368951
0.376357
0.373441
0.361323
0.366751
0.361001
0.351529
0.365776
0.369449
0.366674
0.372013
0.356406
0.373325
0.368119
0.36578
0.380032
0.360818
0.374931
0.35804
0.346474
0.369635
0.370913
0.382813
0.375592
0.385727
0.376773
0.371497
0.373023
0.354238
0.380855
0.355182
0.363113
0.33996
0.347132
0.377254
0.374412
0.361701
0.357818
0.370382
0.369596
0.368002
0.361786
0.346677
0.35898
0.377841
0.374974
0.380008
0.362502
0.369292
0.37663
0.366789
0.357619
0.349323
0.359935
0.37321
0.355466
0.374985
0.389212
0.374666
0.372535
0.371703
0.353827
0.351782
0.352281
0.36152
0.371018
0.356615
0.373752
0.369796
0.361808
0.369859
0.366612
0.36739
0.386814
0.35741
0.358777
0.362627
0.363148
0.379335
0.370254
0.366525
0.34953
0.364777
0.378085
0.36152
0.380092
0.374929
0.351026
0.364069
0.377299
0.373894
0.342458
0.360136
0.370809
0.34795
0.352242
0.376809
0.38012
0.372525
0.359719
0.374313
0.3541
0.368643
0.365534
0.355177
0.363291
0.370774
0.369073
0.380667
0.377036
0.361589
0.361379
0.367707
0.366194
0.362088
0.361147
0.3778
0.369517
0.364754
0.363403
0.361899
0.396075
0.368301
0.349921
0.354715
0.378284
0.360368
0.373743
0.374078
0.36619
0.375493
0.355689
0.36582
0.365303
0.363066
0.37982
0.352452
0.356604
0.364021
0.357842
0.377569
0.348402
0.375453
0.365732
0.380388
0.353492
0.362065
0.38593
0.350723
0.360248
0.380967
0.385981
0.362551
0.354387
0.377884
0.380606
0.363164
0.363893
0.376317
0.376465
0.361761
0.346721
0.375027
0.380682
0.364102
0.348219
0.362748
0.36506
0.37609
0.372718
0.371105
0.384459
0.380267
0.352736
0.386942
0.382503
0.374113
0.372746
0.35316
0.362782
0.370168
0.372138
0.350654
0.373975
0.372345
0.377675
0.360638
0.359295
0.371461
0.358409
0.358341
0.368746
0.365913
0.35665
0.367447
0.373941
0.35546
0.381187
0.359187
0.374337
0.348898
0.37009
0.375899
0.365989
0.357
0.362023
0.353938
0.368172
0.355606
0.355442
0.357977
0.38291
0.373835
0.381545
0.371406
0.360991
0.370157
0.376396
0.358019
0.369616
0.361745
0.362786
0.363976
0.357135
0.370858
0.370054
0.375135
0.377036
0.373798
0.376515
0.368898
0.368173
0.359984
0.368949
0.373771
0.355498
0.361043
0.357971
0.360883
0.36907
0.385249
0.378417
0.370046
0.359254
0.360716
0.350765
0.371664
0.393047
0.37643
0.355301
0.368764
0.367714
0.362262
0.370197
0.363546
0.378695
0.373058
0.359324
0.353945
0.354025
0.372096
0.370651
0.366915
0.37031
0.368789
0.363397
0.366791
0.345473
0.367741
0.393048
0.363682
0.36529
0.387237
0.375659
0.343264
0.367317
0.36512
0.375122
0.362714
0.351428
0.365655
0.352635
0.368285
0.352098
0.367418
0.354593
0.365033
0.368546
0.3634
0.37512
0.375543
0.367658
0.362874
0.372112
0.363562
0.366646
0.377049
0.368809
0.353323
0.36501
0.370661
0.375027
0.354616
0.377729
0.377228
0.360462
0.356408
0.354204
0.358058
0.361781
0.388685
0.36183
0.351481
0.371279
0.359138
0.378244
0.37297
0.356768
0.36444
0.37054
0.371185
0.375003
0.370866
0.377183
0.361725
0.375332
0.349206
0.348537
0.365461
0.374716
0.354282
0.374355
SCALARS Coverage1 float 1
LOOKUP_TABLE default
0.191831
0.171233
0.17911
0.17911
0.178028
0.178028
0.214034
0.191036
0.175639
0.180175
0.19569
0.178057
0.162616
0.177573
0.193668
0.177983
0.169711
0.166468
0.209555
0.214548
0.201732
0.158863
0.149759
0.180034
0.202845
0.192147
0.20641
0.180083
0.172873
0.181466
0.181826
0.176906
0.16661
0.16839
0.175233
0.193204
0.171477
0.20245
0.203777
0.177959
0.1976
0.181768
0.158457
0.176283
0.162092
0.157486
0.153087
0.162594
0.138488
0.160495
0.163065
0.169694
0.166486
0.166042
0.166974
0.151083
0.192678
0.20448
0.185527
0.198593
0.187453
0.197148
0.183087
0.179711
0.173748
0.171774
0.16588
0.194691
0.177583
0.153601
0.175711