# vtk DataFile Version 2.0
2D Surface
ASCII
DATASET UNSTRUCTURED_GRID
POINTS 3257 float
6.98868e-05 -4.311e-05 0. 
6.993e-05 -4.31105e-05 0. 
7.002e-05 -4.3112e-05 0. 
7.011e-05 -4.31171e-05 0. 
7.02e-05 -4.31176e-05 0. 
7.029e-05 -4.31258e-05 0. 
7.038e-05 -4.31266e-05 0. 
7.047e-05 -4.31224e-05 0. 
7.056e-05 -4.31244e-05 0. 
7.065e-05 -4.31265e-05 0. 
7.074e-05 -4.31312e-05 0. 
7.083e-05 -4.31406e-05 0. 
7.092e-05 -4.3144e-05 0. 
7.101e-05 -4.31431e-05 0. 
7.11e-05 -4.31494e-05 0. 
7.119e-05 -4.31486e-05 0. 
7.128e-05 -4.31484e-05 0. 
7.137e-05 -4.31556e-05 0. 
7.146e-05 -4.31577e-05 0. 
7.155e-05 -4.31615e-05 0. 
7.164e-05 -4.31656e-05 0. 
7.173e-05 -4.31661e-05 0. 
7.182e-05 -4.31613e-05 0. 
7.191e-05 -4.31566e-05 0. 
7.2e-05 -4.31464e-05 0. 
7.209e-05 -4.31513e-05 0. 
7.218e-05 -4.31529e-05 0. 
7.227e-05 -4.31628e-05 0. 
7.236e-05 -4.31621e-05 0. 
7.245e-05 -4.31601e-05 0. 
7.254e-05 -4.31653e-05 0. 
7.263e-05 -4.31635e-05 0. 
7.272e-05 -4.31617e-05 0. 
7.281e-05 -4.31582e-05 0. 
7.29e-05 -4.31671e-05 0. 
7.299e-05 -4.31717e-05 0. 
7.308e-05 -4.31741e-05 0. 
7.317e-05 -4.31742e-05 0. 
7.326e-05 -4.31739e-05 0. 
7.335e-05 -4.31689e-05 0. 
7.344e-05 -4.31733e-05 0. 
7.353e-05 -4.31712e-05 0. 
7.362e-05 -4.31663e-05 0. 
7.371e-05 -4.31639e-05 0. 
7.38e-05 -4.31668e-05 0. 
7.389e-05 -4.31614e-05 0. 
7.398e-05 -4.31633e-05 0. 
7.407e-05 -4.31624e-05 0. 
7.416e-05 -4.31576e-05 0. 
7.425e-05 -4.31601e-05 0. 
7.434e-05 -4.31636e-05 0. 
7.443e-05 -4.31643e-05 0. 
7.452e-05 -4.31664e-05 0. 
7.461e-05 -4.31719e-05 0. 
7.47e-05 -4.31711e-05 0. 
7.479e-05 -4.31708e-05 0. 
7.488e-05 -4.31695e-05 0. 
7.497e-05 -4.31733e-05 0. 
7.506e-05 -4.3168e-05 0. 
7.515e-05 -4.31677e-05 0. 
7.524e-05 -4.31665e-05 0. 
7.533e-05 -4.31674e-05 0. 
7.542e-05 -4.31707e-05 0. 
7.551e-05 -4.31779e-05 0. 
7.56e-05 -4.31724e-05 0. 
7.569e-05 -4.31706e-05 0. 
7.578e-05 -4.31699e-05 0. 
7.587e-05 -4.3166e-05 0. 
7.596e-05 -4.31656e-05 0. 
7.605e-05 -4.31662e-05 0. 
7.614e-05 -4.31635e-05 0. 
7.623e-05 -4.31588e-05 0. 
7.632e-05 -4.31563e-05 0. 
7.641e-05 -4.31534e-05 0. 
7.65e-05 -4.3156e-05 0. 
7.659e-05 -4.31597e-05 0. 
7.668e-05 -4.31579e-05 0. 
7.677e-05 -4.31618e-05 0. 
7.686e-05 -4.31626e-05 0. 
7.695e-05 -4.31611e-05 0. 
7.704e-05 -4.31557e-05 0. 
7.713e-05 -4.31528e-05 0. 
7.722e-05 -4.31446e-05 0. 
7.731e-05 -4.31436e-05 0. 
7.74e-05 -4.31413e-05 0. 
7.749e-05 -4.31431e-05 0. 
7.758e-05 -4.31493e-05 0. 
7.767e-05 -4.31513e-05 0. 
7.776e-05 -4.31445e-05 0. 
7.785e-05 -4.31443e-05 0. 
7.794e-05 -4.31403e-05 0. 
7.803e-05 -4.31376e-05 0. 
7.812e-05 -4.31311e-05 0. 
7.821e-05 -4.31281e-05 0. 
7.83e-05 -4.31201e-05 0. 
7.839e-05 -4.31194e-05 0. 
7.848e-05 -4.31214e-05 0. 
7.857e-05 -4.31199e-05 0. 
7.866e-05 -4.31105e-05 0. 
7.875e-05 -4.31191e-05 0. 
7.884e-05 -4.31202e-05 0. 
7.893e-05 -4.31173e-05 0. 
7.902e-05 -4.31176e-05 0. 
7.911e-05 -4.31145e-05 0. 
7.91778e-05 -4.311e-05 0. 
7.92207e-05 -4.311e-05 0. 
7.929e-05 -4.31149e-05 0. 
7.938e-05 -4.31174e-05 0. 
7.947e-05 -4.31155e-05 0. 
7.956e-05 -4.31104e-05 0. 
7.965e-05 -4.31203e-05 0. 
7.974e-05 -4.31178e-05 0. 
7.983e-05 -4.31147e-05 0. 
7.98919e-05 -4.311e-05 0. 
6.84633e-05 -4.302e-05 0. 
6.849e-05 -4.3021e-05 0. 
6.858e-05 -4.30208e-05 0. 
6.8645e-05 -4.302e-05 0. 
6.86729e-05 -4.302e-05 0. 
6.876e-05 -4.30297e-05 0. 
6.885e-05 -4.3039e-05 0. 
6.894e-05 -4.30432e-05 0. 
6.903e-05 -4.30485e-05 0. 
6.912e-05 -4.30578e-05 0. 
6.921e-05 -4.30672e-05 0. 
6.93e-05 -4.30676e-05 0. 
6.939e-05 -4.30688e-05 0. 
6.948e-05 -4.30768e-05 0. 
6.957e-05 -4.3087e-05 0. 
6.966e-05 -4.30985e-05 0. 
6.975e-05 -4.31035e-05 0. 
6.984e-05 -4.31095e-05 0. 
7.92e-05 -4.31085e-05 0. 
7.992e-05 -4.31079e-05 0. 
8.001e-05 -4.31062e-05 0. 
8.01e-05 -4.31034e-05 0. 
8.019e-05 -4.31017e-05 0. 
8.028e-05 -4.30995e-05 0. 
8.037e-05 -4.3107e-05 0. 
8.046e-05 -4.31015e-05 0. 
8.055e-05 -4.31024e-05 0. 
8.064e-05 -4.30975e-05 0. 
8.073e-05 -4.31005e-05 0. 
8.082e-05 -4.30959e-05 0. 
8.091e-05 -4.30928e-05 0. 
8.1e-05 -4.30909e-05 0. 
8.109e-05 -4.30913e-05 0. 
8.118e-05 -4.30889e-05 0. 
8.127e-05 -4.30845e-05 0. 
8.136e-05 -4.30792e-05 0. 
8.145e-05 -4.30709e-05 0. 
8.154e-05 -4.30712e-05 0. 
8.163e-05 -4.30698e-05 0. 
8.172e-05 -4.30636e-05 0. 
8.181e-05 -4.3061e-05 0. 
8.19e-05 -4.30535e-05 0. 
8.199e-05 -4.30487e-05 0. 
8.208e-05 -4.30415e-05 0. 
8.217e-05 -4.3038e-05 0. 
8.226e-05 -4.30307e-05 0. 
8.235e-05 -4.30233e-05 0. 
8.24066e-05 -4.302e-05 0. 
6.6564e-05 -4.293e-05 0. 
6.66e-05 -4.29341e-05 0. 
6.669e-05 -4.29378e-05 0. 
6.678e-05 -4.2938e-05 0. 
6.687e-05 -4.29542e-05 0. 
6.696e-05 -4.29583e-05 0. 
6.705e-05 -4.29589e-05 0. 
6.714e-05 -4.29634e-05 0. 
6.723e-05 -4.29685e-05 0. 
6.732e-05 -4.29698e-05 0. 
6.741e-05 -4.29743e-05 0. 
6.75e-05 -4.29806e-05 0. 
6.759e-05 -4.29921e-05 0. 
6.768e-05 -4.29927e-05 0. 
6.777e-05 -4.29907e-05 0. 
6.786e-05 -4.29943e-05 0. 
6.795e-05 -4.29978e-05 0. 
6.804e-05 -4.29904e-05 0. 
6.813e-05 -4.2998e-05 0. 
6.822e-05 -4.30064e-05 0. 
6.831e-05 -4.30141e-05 0. 
6.84e-05 -4.30176e-05 0. 
6.867e-05 -4.30197e-05 0. 
8.244e-05 -4.3018e-05 0. 
8.253e-05 -4.30136e-05 0. 
8.262e-05 -4.30084e-05 0. 
8.271e-05 -4.30006e-05 0. 
8.28e-05 -4.29995e-05 0. 
8.289e-05 -4.2995e-05 0. 
8.298e-05 -4.29882e-05 0. 
8.307e-05 -4.29847e-05 0. 
8.316e-05 -4.29783e-05 0. 
8.325e-05 -4.29734e-05 0. 
8.334e-05 -4.29708e-05 0. 
8.343e-05 -4.29657e-05 0. 
8.352e-05 -4.29585e-05 0. 
8.361e-05 -4.29558e-05 0. 
8.37e-05 -4.29513e-05 0. 
8.379e-05 -4.29441e-05 0. 
8.388e-05 -4.29397e-05 0. 
8.397e-05 -4.29309e-05 0. 
8.39811e-05 -4.293e-05 0. 
6.49359e-05 -4.284e-05 0. 
6.498e-05 -4.28432e-05 0. 
6.507e-05 -4.28498e-05 0. 
6.516e-05 -4.28471e-05 0. 
6.525e-05 -4.28564e-05 0. 
6.534e-05 -4.28628e-05 0. 
6.543e-05 -4.28697e-05 0. 
6.552e-05 -4.28741e-05 0. 
6.561e-05 -4.28822e-05 0. 
6.57e-05 -4.2885e-05 0. 
6.579e-05 -4.28858e-05 0. 
6.588e-05 -4.28882e-05 0. 
6.597e-05 -4.28872e-05 0. 
6.606e-05 -4.28932e-05 0. 
6.615e-05 -4.28999e-05 0. 
6.624e-05 -4.29051e-05 0. 
6.633e-05 -4.29087e-05 0. 
6.642e-05 -4.29181e-05 0. 
6.651e-05 -4.29238e-05 0. 
8.406e-05 -4.29234e-05 0. 
8.415e-05 -4.29172e-05 0. 
8.424e-05 -4.29078e-05 0. 
8.433e-05 -4.2911e-05 0. 
8.442e-05 -4.29072e-05 0. 
8.451e-05 -4.29016e-05 0. 
8.46e-05 -4.28919e-05 0. 
8.469e-05 -4.28839e-05 0. 
8.478e-05 -4.28764e-05 0. 
8.487e-05 -4.28643e-05 0. 
8.496e-05 -4.28465e-05 0. 
8.505e-05 -4.28432e-05 0. 
8.514e-05 -4.28405e-05 0. 
8.51433e-05 -4.284e-05 0. 
6.3514e-05 -4.275e-05 0. 
6.354e-05 -4.27532e-05 0. 
6.363e-05 -4.27658e-05 0. 
6.372e-05 -4.27743e-05 0. 
6.381e-05 -4.27808e-05 0. 
6.39e-05 -4.27889e-05 0. 
6.399e-05 -4.27955e-05 0. 
6.408e-05 -4.27967e-05 0. 
6.417e-05 -4.28029e-05 0. 
6.426e-05 -4.28126e-05 0. 
6.435e-05 -4.28194e-05 0. 
6.444e-05 -4.28216e-05 0. 
6.453e-05 -4.28259e-05 0. 
6.462e-05 -4.28301e-05 0. 
6.471e-05 -4.28295e-05 0. 
6.48e-05 -4.28283e-05 0. 
6.489e-05 -4.28366e-05 0. 
8.523e-05 -4.28272e-05 0. 
8.532e-05 -4.2823e-05 0. 
8.541e-05 -4.28204e-05 0. 
8.55e-05 -4.28164e-05 0. 
8.559e-05 -4.28123e-05 0. 
8.568e-05 -4.28067e-05 0. 
8.577e-05 -4.28071e-05 0. 
8.586e-05 -4.28002e-05 0. 
8.595e-05 -4.27998e-05 0. 
8.604e-05 -4.27921e-05 0. 
8.613e-05 -4.27768e-05 0. 
8.622e-05 -4.27637e-05 0. 
8.631e-05 -4.27612e-05 0. 
8.64e-05 -4.2756e-05 0. 
8.64807e-05 -4.275e-05 0. 
6.27251e-05 -4.266e-05 0. 
6.273e-05 -4.26608e-05 0. 
6.282e-05 -4.26684e-05 0. 
6.291e-05 -4.26816e-05 0. 
6.3e-05 -4.2695e-05 0. 
6.309e-05 -4.27082e-05 0. 
6.318e-05 -4.27189e-05 0. 
6.327e-05 -4.27275e-05 0. 
6.336e-05 -4.27333e-05 0. 
6.345e-05 -4.2742e-05 0. 
8.649e-05 -4.27493e-05 0. 
8.658e-05 -4.2736e-05 0. 
8.667e-05 -4.27224e-05 0. 
8.676e-05 -4.27144e-05 0. 
8.685e-05 -4.27066e-05 0. 
8.694e-05 -4.27003e-05 0. 
8.703e-05 -4.26921e-05 0. 
8.712e-05 -4.26813e-05 0. 
8.721e-05 -4.26669e-05 0. 
8.72663e-05 -4.266e-05 0. 
6.22412e-05 -4.257e-05 0. 
6.228e-05 -4.25755e-05 0. 
6.237e-05 -4.25991e-05 0. 
6.246e-05 -4.26122e-05 0. 
6.255e-05 -4.2634e-05 0. 
6.264e-05 -4.26461e-05 0. 
8.73e-05 -4.26559e-05 0. 
8.739e-05 -4.26406e-05 0. 
8.748e-05 -4.26254e-05 0. 
8.757e-05 -4.2603e-05 0. 
8.766e-05 -4.25805e-05 0. 
8.76982e-05 -4.257e-05 0. 
6.19692e-05 -4.248e-05 0. 
6.201e-05 -4.25208e-05 0. 
6.21e-05 -4.25199e-05 0. 
6.219e-05 -4.25627e-05 0. 
8.775e-05 -4.25558e-05 0. 
8.784e-05 -4.25332e-05 0. 
8.793e-05 -4.25032e-05 0. 
8.79972e-05 -4.248e-05 0. 
6.18842e-05 -4.239e-05 0. 
6.192e-05 -4.24279e-05 0. 
8.802e-05 -4.24717e-05 0. 
8.80974e-05 -4.239e-05 0. 
6.18547e-05 -4.23e-05 0. 
8.811e-05 -4.2365e-05 0. 
8.81427e-05 -4.23e-05 0. 
6.18491e-05 -4.221e-05 0. 
8.81516e-05 -4.221e-05 0. 
6.18464e-05 -4.212e-05 0. 
8.81529e-05 -4.212e-05 0. 
6.18443e-05 -4.203e-05 0. 
8.81534e-05 -4.203e-05 0. 
6.18436e-05 -4.194e-05 0. 
8.81531e-05 -4.194e-05 0. 
6.18432e-05 -4.185e-05 0. 
8.81529e-05 -4.185e-05 0. 
6.18424e-05 -4.176e-05 0. 
8.81523e-05 -4.176e-05 0. 
6.18425e-05 -4.167e-05 0. 
8.81532e-05 -4.167e-05 0. 
6.18391e-05 -4.158e-05 0. 
8.81533e-05 -4.158e-05 0. 
6.18374e-05 -4.149e-05 0. 
8.81517e-05 -4.149e-05 0. 
6.18369e-05 -4.14e-05 0. 
8.81506e-05 -4.14e-05 0. 
6.18342e-05 -4.131e-05 0. 
8.8151e-05 -4.131e-05 0. 
6.18319e-05 -4.122e-05 0. 
8.81495e-05 -4.122e-05 0. 
6.18314e-05 -4.113e-05 0. 
8.81519e-05 -4.113e-05 0. 
6.18308e-05 -4.104e-05 0. 
8.81538e-05 -4.104e-05 0. 
6.1831e-05 -4.095e-05 0. 
8.81533e-05 -4.095e-05 0. 
6.18295e-05 -4.086e-05 0. 
6.183e-05 -4.08896e-05 0. 
8.8155e-05 -4.086e-05 0. 
6.18292e-05 -4.077e-05 0. 
8.81519e-05 -4.077e-05 0. 
6.18231e-05 -4.068e-05 0. 
8.81562e-05 -4.068e-05 0. 
6.18252e-05 -4.059e-05 0. 
8.81578e-05 -4.059e-05 0. 
6.18278e-05 -4.05e-05 0. 
8.81576e-05 -4.05e-05 0. 
6.18248e-05 -4.041e-05 0. 
8.81584e-05 -4.041e-05 0. 
6.18219e-05 -4.032e-05 0. 
8.81596e-05 -4.032e-05 0. 
6.18195e-05 -4.023e-05 0. 
8.816e-05 -4.023e-05 0. 
6.1827e-05 -4.014e-05 0. 
8.81607e-05 -4.014e-05 0. 
6.18234e-05 -4.005e-05 0. 
8.81637e-05 -4.005e-05 0. 
6.18262e-05 -3.996e-05 0. 
8.8164e-05 -3.996e-05 0. 
[...]
POINT_DATA 3257
SCALARS Coverage0 float 1
LOOKUP_TABLE default
0.192962
0.192962
0.20102
0.170063
0.178485
0.203776
0.190493
0.207941
0.208879
0.181437
0.186469
0.198452
0.180409
0.184381
0.191867
0.181964
0.177349
0.181917
0.177515
0.196905
0.225463
0.205418
0.183206
0.167271
0.182436
0.181385
0.187762
0.189593
0.181784
0.206781
0.206948
0.187932
0.164616
0.170258
0.192342
0.204022
0.190542
0.198656
0.180628
0.167105
0.194034
0.19317
0.187997
0.209489
0.204235
0.182272
0.209112
0.210085
0.183495
0.174259
0.188653
0.199297
0.208337
0.172777
0.163554
0.156506
0.172858
0.174953
0.207001
0.21184
0.194956
0.17332
0.179611
0.201009
0.205763
0.186704
0.178501
0.199832
0.210898
0.209483
0.171385
0.195385
0.182134
0.174887
0.17226
0.18978
0.185159
0.189036
0.183918
0.187372
0.195035
0.189858
0.189625
0.196785
0.221179
0.229377
0.208151
0.193325
0.205672
0.183718
0.195148
0.194938
0.181839
0.175503
0.205376
0.195785
0.188988
0.187488
0.184898
0.165636
0.180349
0.185341
0.202637
0.187505
0.194075
0.194075
0.191763
0.202636
0.18533
0.184024
0.175561
0.187488
0.198451
0.186884
0.17407
0.17407
0.188333
0.171971
0.171971
0.196972
0.223218
0.217103
0.203227
0.205386
0.194077
0.200733
0.193408
0.184171
0.203443
0.194752
0.189903
0.219187
0.194075
0.186884
0.188323
0.173767
0.172845
0.206041
0.207424
0.1907
0.176606
0.19715
0.200088
0.202414
0.205035
0.190378
0.191387
0.179135
0.187741
0.180125
0.175812
0.200507
0.206573
0.218977
0.184481
0.197679
0.209491
0.18973
0.211563
0.202106
0.178581
0.165989
0.212488
0.212488
0.1748
0.17705
0.207994
0.191064
0.20371
0.21617
0.204209
0.210565
0.204377
0.190002
0.163991
0.151249
0.195287
0.193286
0.19962
0.21395
0.200414
0.184879
0.198578
0.170643
0.171971
0.165989
0.199759
0.212547
0.207065
0.19334
0.194604
0.201199
0.17877
0.18521
0.205333
0.18206
0.158587
0.168783
0.200136
0.206813
0.202167
0.192641
0.178001
0.178001
0.174185
0.174185
0.173802
0.190599
0.17836
0.177467
0.186413
0.187213
0.173886
0.160816
0.184359
0.19872
0.169268
0.183779
0.191405
0.194412
0.181765
0.198034
0.218745
0.183041
0.192654
0.196737
0.187532
0.176715
0.172926
0.178459
0.191399
0.195855
0.187464
0.176812
0.191886
0.193867
0.193867
0.199546
0.199546
0.182696
0.188298
0.177659
0.196648
0.167181
0.161642
0.208786
0.188931
0.171113
0.193924
0.20212
0.196021
0.17249
0.185912
0.176006
0.207562
0.176099
0.158177
0.177796
0.199308
0.188204
0.178076
0.197279
0.20095
0.209802
0.193279
0.202737
0.201265
0.20426
0.203005
0.187279
0.187279
0.207295
0.170805
0.17606
0.185719
0.163994
0.169284
0.199427
0.197793
0.203005
0.18806
0.174602
0.179234
0.204443
0.194068
0.182771
0.163098
0.207506
0.237518
0.216524
0.216524
0.214126
0.189046
0.19546
0.189908
0.237518
0.180642
0.183064
0.211466
0.219748
0.219748
0.26201
0.26201
0.225008
0.231297
0.208271
0.202434
0.214756
0.303227
0.376053
0.376053
0.303227
0.342074
0.561588
0.342074
0.588968
0.882293
0.836934
0.882133
0.887868
0.603479
0.770331
0.292555
0.548393
0.961818
0.868214
0.968624
0.961878
0.880375
0.982464
0.890719
0.631318
0.918604
0.544072
0.754233
0.976412
0.640181
0.99001
0.856743
0.987709
0.947986
0.920966
0.846462
0.983346
0.932096
0.979559
0.951922
0.951922
0.742099
0.856924
0.830622
0.590619
0.879157
0.782591
0.935442
0.942669
0.907935
0.889919
0.888075
0.944317
0.912746
0.831849
0.966568
0.49984
0.908045
0.936439
0.949012
0.934839
0.998509
0.981118
0.793825
0.949373
0.820035
0.996885
0.949576
0.993053
0.875175
0.919753
0.92341
0.908087
0.896417
0.968745
0.253588
0.984616
0.830937
0.828094
0.9129
0.826857
0.881942
0.896473
0.805781
0.993387
0.970069
0.996338
0.990184
0.933735
0.953368
0.850051
0.928047
0.929124
1
0.785976
0.987964
0.789178
0.973125
0.672859
0.986432
0.80999
0.967118
1
0.868846
0.817616
0.394015
0.697474
0.994673
0.705543
0.996225
0.995236
0.861945
0.919866
0.88287
0.939081
0.949834
0.884818
0.932425
0
0.86812
0.840921
0.890331
0.903592
0.797388
0.928184
0.975792
0.955136
0.864084
1
0.958975
0.958975
1
0.958975
1
1
0.918916
0.946596
0.867417
0.969072
0.991327
0.991327
0.92389
0.991327
0.978651
0.969395
0.838921
0.922499
0.881721
0.9039
0.947253
0.866335
0.864507
0.864507
1
0.864507
0.989565
0.853752
0.709542
0.821135
0.709542
0.711658
0.915134
0.940933
0.768517
0.89163
0.89163
0.846087
0.89163
0.886646
0.733961
0.920848
0
0.692929
0.507497
0.892317
0.779874
0.866807
0.862985
0.980855
0
0.965284
0
1
0
0
0.84422
0.998464
1
0.945385
1
0.894417
0
0
1
0.961732
0.961732
1
0.961732
0.891794
0.814999
0
0.282397
0
0.655073
1
0.903783
0
0
0
0.89773
0
0.877559
0.913335
0.913335
0.94193
0.913335
0.681329
0.91238
0.781549
0.864906
0.920951
0.899259
0.851265
0.865067
0.746949
0.958515
0.919977
0.920969
0.911132
0
0.827761
0.891986
0
0.598533
0.825387
0.760151
0.760151
0.73269
0.866711
0.781515
1
0.90606
1
0
1
0.999673
1
1
0.897129
0.857865
0.690716
0
0.857865
0.508755
0
0.738115
0
0.694527
0
0
0.73761
1
0.789054
0
0
0
0.907154
0.909867
0.732745
0.73433
0.732745
0.8863
0.778172
0.854141
1
1
0.859341
1
0.999564
1
0.72889
0
0.938924
1
0.872662
0.872662
0
0.894281
1
0
1
1
0
0.756542
0.756542
0
0.858583
1
0.787939
1
0.671116
1
1
1
1
0.864229
0
0.759173
0.759173
1
0
1
1
1
1
1
0.766746
0
0
0.799452
0.766746
0
0.866508
0.923876
0.782204
0.9383
0.782204
1
1
0
1
1
0.802439
0
0
0
0
1
0
0
0.974114
0
0
0.737384
0
0.811505
1
1
0
0
0.811505
0.799217
0
0
0.799217
0.806383
0
0.944888
0
0.944888
0
1
0
1
0
1
0
1
0.71233
0.71233
1
0.778838
0.778838
0.71233
0
1
0
0
1
0.921873
0.839013
0.839013
0.877503
0.877503
0.839013
0
0.805585
0
0.960351
0
0.714481
1
0
0
0
0
0
0
0
0.925181
0
0
0.735442
0
0.758741
0
0.735442
0.897609
0.897609
0
0
0.875965
0.875965
0.542482
0.875965
0
0
0
0
1
1
0
1
1
0
0
0.999171
0.999171
0
0
0
0.690681
0.999171
0.992863
0.992863
0.767897
0
0.82202
0.992863
0.767897
0
0
0
0
0.82202
0
0
0
0
1
1
0
1
0
1
1
0
1
0.717557
1
0.807014
0.807014
1
0.860796
1
1
0.678639
0
0.678639
1
0.744196
0.744196
0
0.495263
0.744196
0
0
0
0.495263
0
0
1
0.891234
0
0
1
1
0
0
1
0
0
0
0
1
0.749636
0.955275
0.955275
0
0.749636
0.955275
0.887611
1
0.82065
0.82065
0
0
0.826386
0.82065
1
1
0
0.851769
1
0
0.753151
0.753151
1
1
0.744247
1
0.786099
1
1
0.778687
1
0.778687
0
1
0
0
0
0.911304
1
0.926934
1
1
0.926934
1
1
0.970271
0.970271
1
1
0
0
0.970271
1
0
0
1
1
0
1
0
1
1
0
1
0
1
0
1
0.998742
1
0.829335
0.829335
1
1
1
1
1
1
1
1
1
1
1
0.977093
0.977093
1
1
1
0.977093
1
0
0
0
1
0
0.972217
0.8652
1
0.597372
0.972217
1
1
0
0.597372
0.805543
0.805543
0
1
0.935523
0.935523
0.805543
0.992877
1
0.564431
0.564431
0.935523
1
0
0
0
0
1
1
0.961097
0.961097
0
1
1
0
0.961097
1
0
0
0
0.943452
0.943452
1
0
0
0
0
0
0.943452
0
0
0
1
0
1
0.699335
0.699335
1
1
0.699335
0
0
1
1
1
0.99071
0.99071
0
1
1
0.99071
0.898687
1
1
1
1
0
0.898687
0
0
0
1
1
1
0.888641
0.888641
0
0.839224
0.839224
0.888641
0
0
0
0
0
0
0
0.930645
0.930645
0
0.933529
0.930645
0
0
0
0
0
0.933529
0
1
0
0
0.952118
0.952118
0
0
0.868715
0.952118
0
0.864561
1
0.858067
1
1
0.858067
0
1
1
1
0.915318
0.915318
0
0
1
0
0.915318
0.892159
0.892159
0
0.876796
0.876796
0.968607
0
0
0.492718
0.492718
0.876796
0.968607
0
1
0
0
0.492718
0
1
1
1
1
1
0
0
1
1
0
1
0
1
0
1
1
1
0
1
1
1
0
0
0
1
0
0.961849
0.961849
1
0.816492
0.816492
0.961849
0.987295
0.987295
1
0.755868
0.987295
0.722691
0.886874
0.722691
1
1
0
0.886874
0
0
1
1
1
0
0
0
0.177879
0.978169
0
0.461603
0
0
0.461603
0
1
1
0
1
0
1
0
0
0
0
0
1
0
0
1
0
1
1
1
0
1
0
0
1
1
1
0
0.802595
1
0.716111
1
1
0
1
1
0
0
0
0
0
0
0
0
0
0.966723
0.966723
0
0
1
0.966723
0.704739
0.704739
1
0
0
0
0
1
1
0.90191
0.90191
0
0
0.888695
0.90191
0.722446
0.744501
0.787222
0.888695
1
1
0.669362
0.824745
0.824745
0.862929
1
0
1
0.669362
0.824745
0.862929
0.799883
0.799883
0
0.894915
0.894915
0
0.894915
0.749282
0
0.749282
0
0
0
0
0
0
0
0
1
0
0
0
0
0
0
1
0
1
0
0.912736
0.912736
1
0.912736
0
1
0
0
0
0
0
0.909285
0.909285
0
0.971262
0.971262
0.909285
0
1
1
1
0.341282
0.971262
0
0
0
1
0
0
0
0
1
0.881295
0.881295
0
0.869641
0.881295
1
0
1
1
1
1
1
0
0
0
0
1
0
1
0
0
0
0
1
0
0.988871
0.988871
1
0
0.991635
0.991635
0.988871
1
0
0
0.70753
0.449282
0.991635
1
1
0
0.983707
0.851147
0.851147
0.740117
0.851147
1
1
1
0.737175
0.740117
0
0
1
1
1
0
1
0
0
0
1
0
1
0
0
0
0.872736
0.872736
0
1
0
0
0
0
0.872736
0.618324
0.618324
0.762363
0.762363
0.803175
1
1
1
1
0
1
1
0.971497
0.971497
0
0
0
1
1
0.971497
0.901428
0
0
0.930653
0.930653
0
0
0
1
1
0
0.921038
0.921038
1
0
0
0.921038
1
1
0
0.85738
1
0.850437
0.850437
1
1
1
0
0
0
1
0
1
0
0.117962
0.117962
0.905919
0
0
1
0.117962
0
0
0
1
1
0
0.999361
0.989391
0.989391
1
1
1
1
0.794448
0.999361
0.989391
1
1
1
1
0.794448
1
1
1
0
0.99783
0.99783
0
0
0.99783
0.892106
0
1
0.892106
1
1
0.702048
0.767256
0.767256
0.767256
1
0.825095
0.767256
0
1
1
0.800218
0.800218
0
1
1
0
1
0
1
0
0
0.800385
0
0
0.767502
0.767502
0
0
1
1
0
0.953792
0.953792
0
0
0.953792
1
0
0
1
0
0
0
0.945398
0.945398
0
0.712193
0.712193
0.945398
0
0
0.705752
1
1
1
1
0
0.763082
0.763082
0
0
1
1
0
1
1
0
1
0
0.822304
1
0.822304
0.86501
0
0
0
1
0
0
0
1
1
0
0
0
1
0
0
1
1
0.910046
0.910046
0
0
0.826323
0.910046
0.939279
1
0.826323
0.939279
1
1
1
0.728129
0
0
0.728129
0
1
0.862527
0.862527
1
0.844327
0.862527
1
1
0.713978
1
1
0.604191
0.604191
1
0
1
1
0
1
0
1
1
0
1
1
0
1
1
1
0
0
0.973137
0.973137
1
0
0.973137
0.739894
0.720369
0
0
0
0
0
0.976942
0.976942
0.675203
0.675203
0
1
0
0
0
0.929902
0.976942
0.675203
0
0
0
0.535598
1
1
1
1
0.535598
1
0
0
0
0
1
0
0
1
0
1
0
0
1
0.770963
1
1
1
0
0.880542
1
1
1
0
0
0.832955
0
0.832955
0.997688
0.997688
1
0.878
0
0.997688
0
0
1
1
1
0
0
0
0.853375
0
0
0
0
0
0
0.669696
0.669696
0
0
0.669696
0.981562
1
0.822241
0
0.794419
0.794419
0
0
1
1
1
1
0.871287
0.871287
1
0
0
0
1
0.871287
0
1
1
0.964148
0.964148
0
0
1
1
0.964148
0.932911
1
1
0.951256
0.951256
0.932911
1
1
1
1
0
0
0.951256
0
0
0
0
0
0
1
0
0
1
1
0
0
1
1
1
0.871475
0
0
0
0
0
0.871475
1
1
0
1
1
0
0
1
0
0
0.961927
0.961927
1
0
1
0.961927
0.519142
0.519142
0
0
1
1
0
0
1
0
0
0
0
0
0.837422
0.959624
0.959624
0
0
0.751494
0.837422
0.959624
0
0
0
1
1
1
0.732454
0.732454
0
0
0
0
0
0.974926
0.974926
0
0
0
0.974926
0.484761
0.740437
1
0.771228
1
0.742193
0.742193
1
0.986574
0.986574
0.789226
0.524718
0.839693
0.839693
0.986574
0.524718
1
0
1
0.697346
0.697346
0
1
0
0.697346
0
0
1
0
0
1
0
1
1
0.946822
0.946822
0.77213
0
0.946822
0.735962
0
0
0
0.735962
0
0
0
0
0.989709
0.989709
0
0
1
0.845984
0.845984
0.989709
0.89281
0.89281
0.801455
0.845984
0
0
1
1
0
0.801455
1
1
1
1
0.988427
0.988427
1
1
0.988427
0.776805
0
0
1
0.776805
0.719637
0
0
0
1
0
0.948494
0
0
0
0.956377
0.758508
1
0
0
1
1
1
0.773809
1
0
0.865488
0.865488
0
0.996367
0.985565
0.985565
0.865488
0.81959
0.892412
0.892412
0.996367
0.985565
0.81959
0.853872
0.821852
0.852372
0
0
0.821852
0.852372
0
0
1
0.996197
0.996197
0.992213
0.992213
0
0.66972
0.66972
0.489278
0.996197
0.992213
0.918958
0.918958
0
0.900369
1
0.93698
0.93698
0.798703
0.703682
0.703682
0.514907
0.93698
1
0.703682
0.587503
0.684361
0.344886
0.348226
0.369603
0.369747
0.36243
0.374425
0.359285
0.370737
0.372308
0.362434
0.346006
0.360169
0.37829
0.379214
0.370007
0.355669
0.371192
0.366874
0.375518
0.377903
0.353741
0.354895
0.366959
0.369783
0.364708
0.392258
0.354824
0.34526
0.35736
0.369225
0.368809
0.356348
0.384138
0.363842
0.370545
0.383553
0.38232
0.359337
0.363362
0.348914
0.370531
0.368035
0.373637
0.375712
0.364424
0.350187
0.379387
0.366967
0.367751
0.357226
0.369666
0.374776
0.357094
0.373796
0.376654
0.374742
0.357993
0.371239
0.358094
0.36612
0.386463
0.365264
0.375095
0.362632
0.359247
0.379408
0.367641
0.350682
0.366864
0.368198
0.355417
0.352639
0.385409
0.369046
0.356125
0.364343
0.363426
0.374282
0.366846
0.366957
0.373819
0.371145
0.382241
0.378782
0.354521
0.356691
0.379174
0.36132
0.337271
0.362764
0.364884
0.378652
0.36426
0.362924
0.366715
0.36333
0.378809
0.364994
0.358887
0.386441
0.375055
0.351774
0.366804
0.360987
0.35256
0.375886
0.370384
0.357201
0.354307
0.372518
0.378045
0.361278
0.36702
0.355061
0.368859
0.378196
0.362706
0.360908
0.365091
0.366068
0.378714
0.386324
0.368536
0.368196
0.369588
0.374211
0.36259
0.3685
0.383037
0.371683
0.364732
0.367117
0.36237
0.382897
0.369375
0.365353
0.368363
0.353692
0.358037
0.372832
0.384614
0.35893
0.366271
0.366894
0.353134
0.368307
0.380559
0.364382
0.341717
0.36088
0.384757
0.367717
0.36678
0.365092
0.344452
0.36032
0.360903
0.353691
0.37375
0.366259
0.370444
0.361209
0.353796
0.357794
0.385321
0.387165
0.370661
0.350551
0.359989
0.346966
0.36397
0.353785
0.372795
0.392783
0.363
0.384978
0.359495
0.350615
0.366964
0.379314
0.371906
0.358036
0.360643
0.36953
0.356624
0.361019
0.371797
0.356002
0.360579
0.372897
0.365867
0.36754
0.361202
0.344377
0.353527
0.379822
0.362928
0.37067
0.369186
0.37048
0.369641
0.373379
0.365696
0.361869
0.364395
0.356468
0.373271
0.37647
0.371098
0.378083
0.3636
0.349461
0.353821
0.357467
0.358002
0.370466
0.369054
0.390588
0.372837
0.37625
0.369943
0.351357
0.380023
0.35382
0.367426
0.352179
0.365574
0.365981
0.365703
0.379393
0.352145
0.353887
0.358149
0.370545
0.367858
0.370922
0.359918
0.344362
0.37649
0.366171
0.367547
0.351467
0.351399
0.36638
0.376424
0.372831
0.347874
0.372654
0.378433
0.388539
0.382017
0.371278
0.357786
0.362373
0.354305
0.363691
0.364489
0.391741
0.379139
0.339161
0.3682
0.38221
0.362694
0.359966
0.356198
0.362544
0.360342
0.375426
0.377361
0.371319
0.361885
0.37713
0.35911
0.359657
0.35569
0.361992
0.383023
0.374981
0.364477
0.370792
0.385549
0.374553
0.349408
0.357916
0.366388
0.354582
0.37114
0.356163
0.371477
0.357621
0.369506
0.367173
0.374117
0.348596
0.372665
0.371666
0.357453
0.351158
0.354827
0.37902
0.366399
0.368311
0.368358
0.364539
0.380086
0.370146
0.357283
0.356071
0.352731
0.3754
0.393284
0.373263
0.376784
0.352598
0.360121
0.354777
0.364048
0.374979
0.370639
0.362561
0.362745
0.379963
0.356846
0.374672
0.363903
0.379758
0.376841
0.377835
0.355019
0.374822
0.354795
0.365923
0.37306
0.356081
0.353499
0.367888
0.360909
0.365306
0.364601
0.374658
0.372558
0.360152
0.372085
0.361517
0.344839
0.361025
0.387906
0.37265
0.370981
0.353108
0.375519
0.373027
0.360207
0.361216
0.36506
0.358593
0.356963
0.366935
0.367383
0.366913
0.382175
0.342575
0.364267
0.39276
0.351218
0.363727
0.348199
0.367062
0.384553
0.375827
0.369456
0.377517
0.358774
0.363782
0.359421
0.370906
0.378566
0.35824
0.347093
0.361154
0.368878
0.364116
0.357071
0.364684
0.366027
0.393221
0.369059
0.356459
0.37475
0.356437
0.375033
0.364919
0.363389
0.354211
0.380778
0.352759
0.364276
0.367705
0.34404
0.368539
0.376005
0.34935
0.374588
0.386465
0.348935
0.359713
0.367983
0.384212
0.372886
0.359655
0.348772
0.379244
0.350657
0.372699
0.378054
0.375586
0.364041
0.353285
0.371949
0.363298
0.375719
0.389466
0.36128
0.348058
0.374876
0.363232
0.361491
0.377605
0.360983
0.362762
0.358816
0.3671
0.369638
0.376016
0.360979
0.357285
0.381339
0.389086
0.376967
0.350562
0.3494
0.350451
0.357931
0.364663
0.371971
0.364116
0.380917
0.357612
0.363992
0.3635
0.359578
0.356028
0.369402
0.376879
0.361642
0.336778
0.374839
0.360396
0.359782
0.363172
0.367125
0.373379
0.362792
0.358941
0.348336
0.361135
0.380759
0.35704
0.375348
0.397183
0.353034
0.359578
0.383834
0.363297
0.364157
0.368699
0.355997
0.362531
0.388601
0.389102
0.361201
0.35248
0.367623
0.370347
0.361541
0.369518
0.354213
0.353639
0.362983
0.369042
0.380792
0.359327
0.387224
0.369375
0.360085
0.365315
0.366343
0.361695
0.369263
0.374744
0.35535
0.354252
0.381469
0.380301
0.354251
0.359557
0.373138
0.363518
0.359144
0.351385
0.387362
0.363248
0.376036
0.367791
0.366446
0.360865
0.350873
0.369872
0.360411
0.357097
0.356173
0.358224
0.374865
0.370842
0.371778
0.387451
0.368506
0.366025
0.381865
0.35061
0.360591
0.381195
0.363062
0.376743
0.37661
0.354795
0.34905
0.381903
0.374988
0.37863
0.362305
0.344298
0.371328
0.365088
0.345682
0.374234
0.361947
0.370812
0.393588
0.385036
0.355928
0.357655
0.360213
0.370029
0.375108
0.353235
0.370993
0.363747
0.377313
0.381268
0.35796
0.362231
0.363942
0.357561
0.346471
0.356547
0.364288
0.357864
0.381863
0.355158
0.362631
0.381014
0.352456
0.380496
0.350955
0.359114
0.370492
0.371211
0.346542
0.355367
0.335914
0.368497
0.355547
0.355294
0.377131
0.384338
0.361713
0.369753
0.369296
0.373561
0.366734
0.367936
0.37443
0.355737
0.374069
0.375561
0.369212
0.355711
0.376196
0.377557
0.382466
0.359099
0.360303
0.361535
0.353157
0.358005
0.370378
0.380422
0.36944
0.350264
0.343645
0.367243
0.365431
0.36719
0.351659
0.380179
0.379742
0.355879
0.381625
0.382966
0.36965
0.357272
0.360423
0.356404
0.357054
0.360964
0.370546
0.365849
0.363106
0.376223
0.364791
0.369232
0.368492
0.37556
0.376978
0.368782
0.363652
0.363368
0.379099
0.367493
0.358234
0.347546
0.369656
0.380279
0.366823
0.359765
0.365238
0.363534
0.355978
0.372644
0.388653
0.357973
0.374644
0.349143
0.359047
0.360289
0.364556
0.372171
0.360163
0.351655
0.382616
0.383083
0.365548
0.375158
0.368963
0.387476
0.389583
0.37981
0.374846
0.355495
0.357912
0.362529
0.378796
0.382418
0.366424
0.37009
0.353623
0.368746
0.353632
0.393747
0.381663
0.358774
0.364916
0.363753
0.369133
0.353928
0.368174
0.366728
0.378666
0.377842
0.364233
0.369378
0.371683
0.376433
0.352801
0.362846
0.354223
0.343514
0.375878
0.371178
0.373593
0.366397
0.364656
0.349852
0.363902
0.378797
0.383704
0.376548
0.361403
0.347848
0.35996
0.353617
0.360955
0.369558
0.373925
0.366473
0.363735
0.347913
0.36745
0.344843
0.366355
0.376465
0.373224
0.37547
0.364519
0.363237
0.362191
0.345638
0.373267
0.372986
0.379223
0.353823
0.341497
0.366751
0.366246
0.376471
0.381065
0.356061
0.367586
0.337821
0.370879
0.368067
0.369335
0.372135
0.370957
0.376447
0.36423
0.374981
0.373258
0.37103
0.376213
0.373631
0.350731
0.360631
0.385469
0.365301
0.344111
0.357161
0.360415
0.362872
0.371196
0.377516
0.371081
0.369957
0.36491
0.371816
0.374886
0.357769
0.365255
0.370809
0.366934
0.36406
0.365921
0.36637
0.359907
0.350342
0.36684
0.355111
0.37084
0.381936
0.374038
0.360263
0.365035
0.36684
0.364069
0.394178
0.378528
0.390141
0.347246
0.360705
0.352033
0.375398
0.377597
0.369135
0.363397
0.371924
0.37384
0.350172
0.375304
0.373689
0.369061
0.364915
0.385198
0.357712
0.367101
0.351414
0.372563
0.375467
0.374083
0.38115
0.379495
0.377131
0.366347
0.360753
0.379286
0.33783
0.355655
0.369189
0.364943
0.352136
0.378868
0.376335
0.35478
0.356304
0.38148
0.373005
0.368215
0.369777
0.371822
0.376884
0.376788
0.35571
0.351435
0.371996
0.366363
0.365528
0.372394
0.385781
0.363668
0.358635
0.350279
0.384792
0.373455
0.361255
0.369103
0.369098
0.364409
0.369346
0.370137
0.370343
0.357529
0.350241
0.371409
0.371523
0.391913
0.3788
0.359874
0.35682
0.354369
0.361758
0.361699
0.365271
0.376056
0.370485
0.364447
0.375694
0.352113
0.372827
0.370818
0.353812
0.372261
0.378236
0.376924
0.359136
0.366817
0.35635
0.365169
0.364382
0.361764
0.37861
0.379248
0.363258
0.369098
0.357897
0.358989
0.355
0.37151
0.381339
0.375341
0.363491
0.337609
0.369226
0.371724
0.371488
0.351126
0.361665
0.3739
0.381056
0.359302
0.349086
0.342329
0.362888
0.366429
0.369994
0.362837
0.374147
0.387483
0.378955
0.371689
0.358913
0.365172
0.37334
0.345027
0.367468
0.375605
0.357493
0.341745
0.382841
0.38269
0.371132
0.352561
0.365131
0.372366
0.344658
0.366923
0.362123
0.375267
0.375852
0.371674
0.365819
0.349942
0.365362
0.379279
0.389927
0.361806
0.378693
0.359766
0.369884
0.367678
0.363814
0.357991
0.360674
0.373973
0.383275
0.362744
0.351871
0.365307
0.366775
0.350108
0.369662
0.351124
0.361791
0.38789
0.369408
0.371926
0.364194
0.357398
0.350486
0.355845
0.366771
0.377197
0.374707
0.395297
0.391468
0.368109
0.372031
0.352253
0.343779
0.358384
0.369862
0.362869
0.360769
0.370165
0.375472
0.375402
0.353343
0.338989
0.370125
0.364189
0.357354
0.376879
0.380531
0.368971
0.361808
0.384111
0.380596
0.353389
0.36597
0.369695
0.372578
0.372707
0.372887
0.364308
0.352228
0.360675
0.35801
0.361209
0.379645
0.35757
0.361732
0.361787
0.362775
0.339642
0.377112
0.391577
0.37133
0.349235
0.342797
0.377847
0.364476
0.355452
0.357992
0.372195
0.367784
0.358677
0.353989
0.382748
0.36339
0.364674
0.369602
0.376542
0.373703
0.367666
0.374957
0.345397
0.347056
0.356352
0.363706
0.373268
0.381502
0.356348
0.355408
0.362522
0.35688
0.376675
0.363797