# vtk DataFile Version 2.0
2D Volume
ASCII
DATASET UNSTRUCTURED_GRID
POINTS 116 float
150 -100 0. 
150 -90.909 0. 
140.62 -100 0. 
140 -90 0. 
150 -81.818 0. 
131.25 -100 0. 
130.91 -90 0. 
140 -80 0. 
150 -72.727 0. 
121.88 -100 0. 
121.82 -90 0. 
140 -70 0. 
150 -63.636 0. 
112.5 -100 0. 
112.73 -90 0. 
140 -60 0. 
150 -54.545 0. 
103.12 -100 0. 
103.64 -90 0. 
140 -50 0. 
150 -45.455 0. 
93.75 -100 0. 
94.545 -90 0. 
140 -40 0. 
150 -36.364 0. 
85.455 -90 0. 
84.375 -100 0. 
140 -30 0. 
150 -27.273 0. 
76.364 -90 0. 
75 -100 0. 
140 -20 0. 
150 -18.182 0. 
67.273 -90 0. 
65.625 -100 0. 
140 -10 0. 
150 -9.0909 0. 
130.91 -10 0. 
58.182 -90 0. 
56.25 -100 0. 
121.82 -10 0. 
112.73 -10 0. 
150 -0 0. 
140.63 0 0. 
103.64 -10 0. 
49.091 -90 0. 
131.25 0 0. 
46.875 -100 0. 
121.88 0 0. 
94.545 -10 0. 
112.5 0 0. 
103.13 0 0. 
40 -90 0. 
85.455 -10 0. 
40 -80 0. 
37.5 -100 0. 
40 -70 0. 
93.75 0 0. 
76.364 -10 0. 
40 -60 0. 
31.437 -93.064 0. 
84.375 0 0. 
31.773 -75 0. 
28.125 -100 0. 
67.273 -10 0. 
28.125 -83.546 0. 
75 0 0. 
40 -40 0. 
30 -60 0. 
23.437 -91.773 0. 
58.182 -10 0. 
40 -30 0. 
22.103 -72.425 0. 
65.625 0 0. 
18.75 -100 0. 
18.75 -83.546 0. 
30 -40 0. 
49.091 -10 0. 
40 -20 0. 
20 -60 0. 
14.062 -91.773 0. 
56.25 0 0. 
29.273 -31.865 0. 
15 -68.227 0. 
32.93 -24.641 0. 
9.375 -100 0. 
11.074 -76.654 0. 
9.2579 -83.586 0. 
40 -10 0. 
20 -40 0. 
46.875 0 0. 
10 -60 0. 
23.437 -24.682 0. 
28.125 -16.454 0. 
32.812 -8.2272 0. 
-0 -100 0. 
0 -90 0. 
37.5 0 0. 
0 -80 0. 
10 -40 0. 
0 -70 0. 
10.986 -33.66 0. 
-0 -60 0. 
13.945 -24.641 0. 
18.75 -16.454 0. 
23.437 -8.2272 0. 
28.125 0 0. 
-0 -40 0. 
9.2579 -16.414 0. 
14.062 -8.2272 0. 
18.75 0 0. 
0 -30 0. 
0 -20 0. 
9.375 0 0. 
0 -10 0. 
-0 -0 0. 
CELLS 135 540
3 42 36 43 
3 36 32 35 
3 32 28 31 
3 28 24 27 
3 24 20 23 
3 20 16 19 
3 16 12 15 
3 12 8 11 
3 8 4 7 
3 4 1 3 
3 1 0 2 
3 52 45 47 
3 45 38 39 
3 38 33 34 
3 33 29 30 
3 29 25 26 
3 25 22 21 
3 22 18 17 
3 18 14 13 
3 14 10 9 
3 10 6 9 
3 6 3 5 
3 35 37 46 
3 37 40 48 
3 40 41 48 
3 41 44 50 
3 44 49 51 
3 49 53 57 
3 53 58 61 
3 58 64 66 
3 64 70 73 
3 70 77 81 
3 77 88 90 
3 115 113 114 
3 113 110 109 
3 110 106 105 
3 106 97 94 
3 97 90 88 
3 90 81 77 
3 81 73 70 
3 73 66 64 
3 66 61 58 
3 61 57 53 
3 57 51 49 
3 51 50 44 
3 50 48 41 
3 48 46 37 
3 46 43 35 
3 2 5 3 
3 5 9 6 
3 9 13 14 
3 13 17 18 
3 17 21 22 
3 21 26 25 
3 26 30 29 
3 30 34 33 
3 34 39 38 
3 39 47 45 
3 47 55 52 
3 55 63 60 
3 63 74 69 
3 74 85 80 
3 85 95 96 
3 109 110 105 
3 109 105 104 
3 113 109 114 
3 105 106 94 
3 105 94 93 
3 94 97 88 
3 94 88 78 
3 60 63 69 
3 60 69 65 
3 55 60 52 
3 52 65 54 
3 69 74 80 
3 69 80 75 
3 80 85 96 
3 104 105 93 
3 104 93 92 
3 109 104 108 
3 93 94 78 
3 65 69 75 
3 65 75 72 
3 60 65 52 
3 75 80 87 
3 92 93 84 
3 104 92 103 
3 108 104 103 
3 108 103 112 
3 109 108 114 
3 87 80 96 
3 75 87 86 
3 84 93 78 
3 84 78 71 
3 84 71 82 
3 92 84 82 
3 103 92 89 
3 86 87 98 
3 75 86 72 
3 82 71 76 
3 82 76 89 
3 92 82 89 
3 72 83 79 
3 108 112 114 
3 98 87 96 
3 107 111 99 
3 111 112 103 
3 98 100 86 
3 100 102 91 
3 91 79 83 
3 83 72 86 
3 83 86 100 
3 91 83 100 
3 79 68 72 
3 68 59 56 
3 56 54 62 
3 62 54 65 
3 62 65 72 
3 62 72 68 
3 56 62 68 
3 3 7 4 
3 7 11 8 
3 11 15 12 
3 15 19 16 
3 19 23 20 
3 23 27 24 
3 27 31 28 
3 31 35 32 
3 71 67 76 
3 89 99 101 
3 101 99 111 
3 89 101 103 
3 103 101 111 
3 35 43 36 
3 2 3 1 
CELL_TYPES 135
5
5
5
5
5
5
5
5
5
5
5
5
5
5
5
5
5
5
5
5
5
5
5
5
5
5
5
5
5
5
5
5
5
5
5
5
5
5
5
5
5
5
5
5
5
5
5
5
5
5
5
5
5
5
5
5
5
5
5
5
5
5
5
5
5
5
5
5
5
5
5
5
5
5
5
5
5
5
5
5
5
5
5
5
5
5
5
5
5
5
5
5
5
5
5
5
5
5
5
5
5
5
5
5
5
5
5
5
5
5
5
5
5
5
5
5
5
5
5
5
5
5
5
5
5
5
5
5
5
5
5
5
5
5
5
CELL_DATA 135
SCALARS Material int 1
LOOKUP_TABLE default
1
1
1
1
1
1
1
1
1
1
1
1
1
1
1
1
1
1
1
1
1
1
1
1
1
1
1
1
1
1
1
1
1
1
1
1
1
1
1
1
1
1
1
1
1
1
1
1
1
1
1
1
1
1
1
1
1
1
1
1
1
1
1
1
1
1
1
1
1
1
1
1
1
1
1
1
1
1
1
1
1
1
1
1
1
1
1
1
1
1
1
1
1
1
1
1
1
1
1
1
1
1
1
1
1
1
1
1
1
1
1
1
1
1
1
1
1
1
1
1
1
1
1
1
1
1
1
1
1
1
1
1
1
1
1
