# vtk DataFile Version 2.0
2D Surface
ASCII
DATASET UNSTRUCTURED_GRID
POINTS 11 float
0 0.105736 0. 
1 0.105736 0. 
2 0.105736 0. 
3 0.105736 0. 
4 0.105736 0. 
5 0.105736 0. 
6 0.105736 0. 
7 0.105736 0. 
8 0.105736 0. 
9 0.105736 0. 
10 0.105736 0. 
CELLS 10 30
2 0 1 
2 1 2 
2 2 3 
2 3 4 
2 4 5 
2 5 6 
2 6 7 
2 7 8 
2 8 9 
2 9 10 
CELL_TYPES 10
3
3
3
3
3
3
3
3
3
3
POINT_DATA 11
SCALARS Velocities float 1
LOOKUP_TABLE default
0.000249812
0.000249812
0.000249812
0.000249812
0.000249812
0.000249812
0.000249812
0.000249812
0.000249812
0.000249812
0.000249812
SCALARS Coverage0 float 1
LOOKUP_TABLE default
0
0
0
0
0
0
0
0
0
0
0
SCALARS Coverage1 float 1
LOOKUP_TABLE default
0.978867
0.978867
0.978867
0.978867
0.978867
0.978867
0.978867
0.978867
0.978867
0.978867
0.978867
SCALARS Coverage2 float 1
LOOKUP_TABLE default
0.978867
0.978867
0.978867
0.978867
0.978867
0.978867
0.978867
0.978867
0.978867
0.978867
0.978867
SCALARS Coverage3 float 1
LOOKUP_TABLE default
0
0
0
0
0
0
0
0
0
0
0
SCALARS Coverage4 float 1
LOOKUP_TABLE default
0.0211333
0.0211333
0.0211333
0.0211333
0.0211333
0.0211333
0.0211333
0.0211333
0.0211333
0.0211333
0.0211333
SCALARS Coverage5 float 1
LOOKUP_TABLE default
0
0
0
0
0
0
0
0
0
0
0
SCALARS Coverage6 float 1
LOOKUP_TABLE default
0.97678
0.97678
0.97678
0.97678
0.97678
0.97678
0.97678
0.97678
0.97678
0.97678
0.97678
SCALARS Coverage7 float 1
LOOKUP_TABLE default
0.916855
0.916855
0.916855
0.916855
0.916855
0.916855
0.916855
0.916855
0.916855
0.916855
0.916855
SCALARS Coverage8 float 1
LOOKUP_TABLE default
0.916855
0.916855
0.916855
0.916855
0.916855
0.916855
0.916855
0.916855
0.916855
0.916855
0.916855
SCALARS Coverage9 float 1
LOOKUP_TABLE default
0.00208688
0.00208688
0.00208688
0.00208688
0.00208688
0.00208688
0.00208688
0.00208688
0.00208688
0.00208688
0.00208688
SCALARS Coverage10 float 1
LOOKUP_TABLE default
0.0810584
0.0810584
0.0810584
0.0810584
0.0810584
0.0810584
0.0810584
0.0810584
0.0810584
0.0810584
0.0810584
SCALARS Coverage11 float 1
LOOKUP_TABLE default
0.00230773
0.00230773
0.00230773
0.00230773
0.00230773
0.00230773
0.00230773
0.00230773
0.00230773
0.00230773
0.00230773
