# vtk DataFile Version 2.0
2D Surface
ASCII
DATASET UNSTRUCTURED_GRID
POINTS 11 float
0 1.02777 0. 
1 1.02777 0. 
2 1.02777 0. 
3 1.02777 0. 
4 1.02777 0. 
5 1.02777 0. 
6 1.02777 0. 
7 1.02777 0. 
8 1.02777 0. 
9 1.02777 0. 
10 1.02777 0. 
CELLS 10 30
2 0 1 
2 1 2 
2 2 3 
2 3 4 
2 4 5 
2 5 6 
2 6 7 
2 7 8 
2 8 9 
2 9 10 
CELL_TYPES 10
3
3
3
3
3
3
3
3
3
3
POINT_DATA 11
SCALARS Velocities float 1
LOOKUP_TABLE default
0.014147
0.014147
0.014147
0.014147
0.014147
0.014147
0.014147
0.014147
0.014147
0.014147
0.014147
SCALARS Coverage0 float 1
LOOKUP_TABLE default
0.95416
0.95416
0.95416
0.95416
0.95416
0.95416
0.95416
0.95416
0.95416
0.95416
0.95416
SCALARS Coverage1 float 1
LOOKUP_TABLE default
0.860849
0.860849
0.860849
0.860849
0.860849
0.860849
0.860849
0.860849
0.860849
0.860849
0.860849
SCALARS Coverage2 float 1
LOOKUP_TABLE default
0.861032
0.861032
0.861032
0.861032
0.861032
0.861032
0.861032
0.861032
0.861032
0.861032
0.861032
SCALARS Coverage3 float 1
LOOKUP_TABLE default
0.0307542
0.0307542
0.0307542
0.0307542
0.0307542
0.0307542
0.0307542
0.0307542
0.0307542
0.0307542
0.0307542
SCALARS Coverage4 float 1
LOOKUP_TABLE default
0.108214
0.108214
0.108214
0.108214
0.108214
0.108214
0.108214
0.108214
0.108214
0.108214
0.108214
SCALARS Coverage5 float 1
LOOKUP_TABLE default
0.0326721
0.0326721
0.0326721
0.0326721
0.0326721
0.0326721
0.0326721
0.0326721
0.0326721
0.0326721
0.0326721
SCALARS Coverage6 float 1
LOOKUP_TABLE default
0.871374
0.871374
0.871374
0.871374
0.871374
0.871374
0.871374
0.871374
0.871374
0.871374
0.871374
SCALARS Coverage7 float 1
LOOKUP_TABLE default
0.957289
0.957289
0.957289
0.957289
0.957289
0.957289
0.957289
0.957289
0.957289
0.957289
0.957289
SCALARS Coverage8 float 1
LOOKUP_TABLE default
0.984914
0.984914
0.984914
0.984914
0.984914
0.984914
0.984914
0.984914
0.984914
0.984914
0.984914
SCALARS Coverage9 float 1
LOOKUP_TABLE default
0.000183382
0.000183382
0.000183382
0.000183382
0.000183382
0.000183382
0.000183382
0.000183382
0.000183382
0.000183382
0.000183382
SCALARS Coverage10 float 1
LOOKUP_TABLE default
0.0149022
0.0149022
0.0149022
0.0149022
0.0149022
0.0149022
0.0149022
0.0149022
0.0149022
0.0149022
0.0149022
SCALARS Coverage11 float 1
LOOKUP_TABLE default
0
0
0
0
0
0
0
0
0
0
0
