# vtk DataFile Version 2.0
2D Surface
ASCII
DATASET UNSTRUCTURED_GRID
POINTS 11 float
0 4.06671 0. 
1 4.06671 0. 
2 4.06671 0. 
3 4.06671 0. 
4 4.06671 0. 
5 4.06671 0. 
6 4.06671 0. 
7 4.06671 0. 
8 4.06671 0. 
9 4.06671 0. 
10 4.06671 0. 
CELLS 10 30
2 0 1 
2 1 2 
2 2 3 
2 3 4 
2 4 5 
2 5 6 
2 6 7 
2 7 8 
2 8 9 
2 9 10 
CELL_TYPES 10
3
3
3
3
3
3
3
3
3
3
POINT_DATA 11
SCALARS Velocities float 1
LOOKUP_TABLE default
0.0269798
0.0269798
0.0269798
0.0269798
0.0269798
0.0269798
0.0269798
0.0269798
0.0269798
0.0269798
0.0269798
SCALARS Coverage0 float 1
LOOKUP_TABLE default
0.921901
0.921901
0.921901
0.921901
0.921901
0.921901
0.921901
0.921901
0.921901
0.921901
0.921901
SCALARS Coverage1 float 1
LOOKUP_TABLE default
0.766963
0.766963
0.766963
0.766963
0.766963
0.766963
0.766963
0.766963
0.766963
0.766963
0.766963
SCALARS Coverage2 float 1
LOOKUP_TABLE default
0.767147
0.767147
0.767147
0.767147
0.767147
0.767147
0.767147
0.767147
0.767147
0.767147
0.767147
SCALARS Coverage3 float 1
LOOKUP_TABLE default
0.0630133
0.0630133
0.0630133
0.0630133
0.0630133
0.0630133
0.0630133
0.0630133
0.0630133
0.0630133
0.0630133
SCALARS Coverage4 float 1
LOOKUP_TABLE default
0.16984
0.16984
0.16984
0.16984
0.16984
0.16984
0.16984
0.16984
0.16984
0.16984
0.16984
SCALARS Coverage5 float 1
LOOKUP_TABLE default
0.0623091
0.0623091
0.0623091
0.0623091
0.0623091
0.0623091
0.0623091
0.0623091
0.0623091
0.0623091
0.0623091
SCALARS Coverage6 float 1
LOOKUP_TABLE default
0.871327
0.871327
0.871327
0.871327
0.871327
0.871327
0.871327
0.871327
0.871327
0.871327
0.871327
SCALARS Coverage7 float 1
LOOKUP_TABLE default
0.957275
0.957275
0.957275
0.957275
0.957275
0.957275
0.957275
0.957275
0.957275
0.957275
0.957275
SCALARS Coverage8 float 1
LOOKUP_TABLE default
0.984914
0.984914
0.984914
0.984914
0.984914
0.984914
0.984914
0.984914
0.984914
0.984914
0.984914
SCALARS Coverage9 float 1
LOOKUP_TABLE default
0.000183386
0.000183386
0.000183386
0.000183386
0.000183386
0.000183386
0.000183386
0.000183386
0.000183386
0.000183386
0.000183386
SCALARS Coverage10 float 1
LOOKUP_TABLE default
0.0149024
0.0149024
0.0149024
0.0149024
0.0149024
0.0149024
0.0149024
0.0149024
0.0149024
0.0149024
0.0149024
SCALARS Coverage11 float 1
LOOKUP_TABLE default
0
0
0
0
0
0
0
0
0
0
0
