# vtk DataFile Version 2.0
2D Surface
ASCII
DATASET UNSTRUCTURED_GRID
POINTS 11 float
0 1.12324 0. 
1 1.12324 0. 
2 1.12324 0. 
3 1.12324 0. 
4 1.12324 0. 
5 1.12324 0. 
6 1.12324 0. 
7 1.12324 0. 
8 1.12324 0. 
9 1.12324 0. 
10 1.12324 0. 
CELLS 10 30
2 0 1 
2 1 2 
2 2 3 
2 3 4 
2 4 5 
2 5 6 
2 6 7 
2 7 8 
2 8 9 
2 9 10 
CELL_TYPES 10
3
3
3
3
3
3
3
3
3
3
POINT_DATA 11
SCALARS Velocities float 1
LOOKUP_TABLE default
0.000239758
0.000239758
0.000239758
0.000239758
0.000239758
0.000239758
0.000239758
0.000239758
0.000239758
0.000239758
0.000239758
SCALARS Coverage0 float 1
LOOKUP_TABLE default
0.957275
0.957275
0.957275
0.957275
0.957275
0.957275
0.957275
0.957275
0.957275
0.957275
0.957275
SCALARS Coverage1 float 1
LOOKUP_TABLE default
0.871327
0.871327
0.871327
0.871327
0.871327
0.871327
0.871327
0.871327
0.871327
0.871327
0.871327
SCALARS Coverage2 float 1
LOOKUP_TABLE default
0.87151
0.87151
0.87151
0.87151
0.87151
0.87151
0.87151
0.87151
0.87151
0.87151
0.87151
SCALARS Coverage3 float 1
LOOKUP_TABLE default
0.027639
0.027639
0.027639
0.027639
0.027639
0.027639
0.027639
0.027639
0.027639
0.027639
0.027639
SCALARS Coverage4 float 1
LOOKUP_TABLE default
0.100851
0.100851
0.100851
0.100851
0.100851
0.100851
0.100851
0.100851
0.100851
0.100851
0.100851
SCALARS Coverage5 float 1
LOOKUP_TABLE default
0
0
0
0
0
0
0
0
0
0
0
SCALARS Coverage6 float 1
LOOKUP_TABLE default
0.869493
0.869493
0.869493
0.869493
0.869493
0.869493
0.869493
0.869493
0.869493
0.869493
0.869493
SCALARS Coverage7 float 1
LOOKUP_TABLE default
0.891804
0.891804
0.891804
0.891804
0.891804
0.891804
0.891804
0.891804
0.891804
0.891804
0.891804
SCALARS Coverage8 float 1
LOOKUP_TABLE default
0.919443
0.919443
0.919443
0.919443
0.919443
0.919443
0.919443
0.919443
0.919443
0.919443
0.919443
SCALARS Coverage9 float 1
LOOKUP_TABLE default
0.00201665
0.00201665
0.00201665
0.00201665
0.00201665
0.00201665
0.00201665
0.00201665
0.00201665
0.00201665
0.00201665
SCALARS Coverage10 float 1
LOOKUP_TABLE default
0.0785407
0.0785407
0.0785407
0.0785407
0.0785407
0.0785407
0.0785407
0.0785407
0.0785407
0.0785407
0.0785407
SCALARS Coverage11 float 1
LOOKUP_TABLE default
0.00221486
0.00221486
0.00221486
0.00221486
0.00221486
0.00221486
0.00221486
0.00221486
0.00221486
0.00221486
0.00221486
