# vtk DataFile Version 2.0
2D Surface
ASCII
DATASET UNSTRUCTURED_GRID
POINTS 11 float
0 4.68494 0. 
1 4.68494 0. 
2 4.68494 0. 
3 4.68494 0. 
4 4.68494 0. 
5 4.68494 0. 
6 4.68494 0. 
7 4.68494 0. 
8 4.68494 0. 
9 4.68494 0. 
10 4.68494 0. 
CELLS 10 30
2 0 1 
2 1 2 
2 2 3 
2 3 4 
2 4 5 
2 5 6 
2 6 7 
2 7 8 
2 8 9 
2 9 10 
CELL_TYPES 10
3
3
3
3
3
3
3
3
3
3
POINT_DATA 11
SCALARS Velocities float 1
LOOKUP_TABLE default
0.000273937
0.000273937
0.000273937
0.000273937
0.000273937
0.000273937
0.000273937
0.000273937
0.000273937
0.000273937
0.000273937
SCALARS Coverage0 float 1
LOOKUP_TABLE default
0.957275
0.957275
0.957275
0.957275
0.957275
0.957275
0.957275
0.957275
0.957275
0.957275
0.957275
SCALARS Coverage1 float 1
LOOKUP_TABLE default
0.871327
0.871327
0.871327
0.871327
0.871327
0.871327
0.871327
0.871327
0.871327
0.871327
0.871327
SCALARS Coverage2 float 1
LOOKUP_TABLE default
0.87151
0.87151
0.87151
0.87151
0.87151
0.87151
0.87151
0.87151
0.87151
0.87151
0.87151
SCALARS Coverage3 float 1
LOOKUP_TABLE default
0.0276389
0.0276389
0.0276389
0.0276389
0.0276389
0.0276389
0.0276389
0.0276389
0.0276389
0.0276389
0.0276389
SCALARS Coverage4 float 1
LOOKUP_TABLE default
0.100851
0.100851
0.100851
0.100851
0.100851
0.100851
0.100851
0.100851
0.100851
0.100851
0.100851
SCALARS Coverage5 float 1
LOOKUP_TABLE default
0
0
0
0
0
0
0
0
0
0
0
SCALARS Coverage6 float 1
LOOKUP_TABLE default
0.869257
0.869257
0.869257
0.869257
0.869257
0.869257
0.869257
0.869257
0.869257
0.869257
0.869257
SCALARS Coverage7 float 1
LOOKUP_TABLE default
0.885894
0.885894
0.885894
0.885894
0.885894
0.885894
0.885894
0.885894
0.885894
0.885894
0.885894
SCALARS Coverage8 float 1
LOOKUP_TABLE default
0.913533
0.913533
0.913533
0.913533
0.913533
0.913533
0.913533
0.913533
0.913533
0.913533
0.913533
SCALARS Coverage9 float 1
LOOKUP_TABLE default
0.00225353
0.00225353
0.00225353
0.00225353
0.00225353
0.00225353
0.00225353
0.00225353
0.00225353
0.00225353
0.00225353
SCALARS Coverage10 float 1
LOOKUP_TABLE default
0.0842138
0.0842138
0.0842138
0.0842138
0.0842138
0.0842138
0.0842138
0.0842138
0.0842138
0.0842138
0.0842138
SCALARS Coverage11 float 1
LOOKUP_TABLE default
0.0025306
0.0025306
0.0025306
0.0025306
0.0025306
0.0025306
0.0025306
0.0025306
0.0025306
0.0025306
0.0025306
