# vtk DataFile Version 2.0
2D Surface
ASCII
DATASET UNSTRUCTURED_GRID
POINTS 11 float
0 3.06304 0. 
1 3.06304 0. 
2 3.06304 0. 
3 3.06304 0. 
4 3.06304 0. 
5 3.06304 0. 
6 3.06304 0. 
7 3.06304 0. 
8 3.06304 0. 
9 3.06304 0. 
10 3.06304 0. 
CELLS 10 30
2 0 1 
2 1 2 
2 2 3 
2 3 4 
2 4 5 
2 5 6 
2 6 7 
2 7 8 
2 8 9 
2 9 10 
CELL_TYPES 10
3
3
3
3
3
3
3
3
3
3
POINT_DATA 11
SCALARS Velocities float 1
LOOKUP_TABLE default
0.014147
0.014147
0.014147
0.014147
0.014147
0.014147
0.014147
0.014147
0.014147
0.014147
0.014147
SCALARS Coverage0 float 1
LOOKUP_TABLE default
0.95416
0.95416
0.95416
0.95416
0.95416
0.95416
0.95416
0.95416
0.95416
0.95416
0.95416
SCALARS Coverage1 float 1
LOOKUP_TABLE default
0.860849
0.860849
0.860849
0.860849
0.860849
0.860849
0.860849
0.860849
0.860849
0.860849
0.860849
SCALARS Coverage2 float 1
LOOKUP_TABLE default
0.861032
0.861032
0.861032
0.861032
0.861032
0.861032
0.861032
0.861032
0.861032
0.861032
0.861032
SCALARS Coverage3 float 1
LOOKUP_TABLE default
0.0307541
0.0307541
0.0307541
0.0307541
0.0307541
0.0307541
0.0307541
0.0307541
0.0307541
0.0307541
0.0307541
SCALARS Coverage4 float 1
LOOKUP_TABLE default
0.108214
0.108214
0.108214
0.108214
0.108214
0.108214
0.108214
0.108214
0.108214
0.108214
0.108214
SCALARS Coverage5 float 1
LOOKUP_TABLE default
0.032672
0.032672
0.032672
0.032672
0.032672
0.032672
0.032672
0.032672
0.032672
0.032672
0.032672
SCALARS Coverage6 float 1
LOOKUP_TABLE default
0.871327
0.871327
0.871327
0.871327
0.871327
0.871327
0.871327
0.871327
0.871327
0.871327
0.871327
SCALARS Coverage7 float 1
LOOKUP_TABLE default
0.957275
0.957275
0.957275
0.957275
0.957275
0.957275
0.957275
0.957275
0.957275
0.957275
0.957275
SCALARS Coverage8 float 1
LOOKUP_TABLE default
0.984914
0.984914
0.984914
0.984914
0.984914
0.984914
0.984914
0.984914
0.984914
0.984914
0.984914
SCALARS Coverage9 float 1
LOOKUP_TABLE default
0.000183386
0.000183386
0.000183386
0.000183386
0.000183386
0.000183386
0.000183386
0.000183386
0.000183386
0.000183386
0.000183386
SCALARS Coverage10 float 1
LOOKUP_TABLE default
0.0149024
0.0149024
0.0149024
0.0149024
0.0149024
0.0149024
0.0149024
0.0149024
0.0149024
0.0149024
0.0149024
SCALARS Coverage11 float 1
LOOKUP_TABLE default
0
0
0
0
0
0
0
0
0
0
0
