# vtk DataFile Version 2.0
2D Surface
ASCII
DATASET UNSTRUCTURED_GRID
POINTS 11 float
0 4.17536 0. 
1 4.17536 0. 
2 4.17536 0. 
3 4.17536 0. 
4 4.17536 0. 
5 4.17536 0. 
6 4.17536 0. 
7 4.17536 0. 
8 4.17536 0. 
9 4.17536 0. 
10 4.17536 0. 
CELLS 10 30
2 0 1 
2 1 2 
2 2 3 
2 3 4 
2 4 5 
2 5 6 
2 6 7 
2 7 8 
2 8 9 
2 9 10 
CELL_TYPES 10
3
3
3
3
3
3
3
3
3
3
POINT_DATA 11
SCALARS Velocities float 1
LOOKUP_TABLE default
0.00150354
0.00150354
0.00150354
0.00150354
0.00150354
0.00150354
0.00150354
0.00150354
0.00150354
0.00150354
0.00150354
SCALARS Coverage0 float 1
LOOKUP_TABLE default
0.957275
0.957275
0.957275
0.957275
0.957275
0.957275
0.957275
0.957275
0.957275
0.957275
0.957275
SCALARS Coverage1 float 1
LOOKUP_TABLE default
0.871327
0.871327
0.871327
0.871327
0.871327
0.871327
0.871327
0.871327
0.871327
0.871327
0.871327
SCALARS Coverage2 float 1
LOOKUP_TABLE default
0.87151
0.87151
0.87151
0.87151
0.87151
0.87151
0.87151
0.87151
0.87151
0.87151
0.87151
SCALARS Coverage3 float 1
LOOKUP_TABLE default
0.0276389
0.0276389
0.0276389
0.0276389
0.0276389
0.0276389
0.0276389
0.0276389
0.0276389
0.0276389
0.0276389
SCALARS Coverage4 float 1
LOOKUP_TABLE default
0.100851
0.100851
0.100851
0.100851
0.100851
0.100851
0.100851
0.100851
0.100851
0.100851
0.100851
SCALARS Coverage5 float 1
LOOKUP_TABLE default
0
0
0
0
0
0
0
0
0
0
0
SCALARS Coverage6 float 1
LOOKUP_TABLE default
0.862197
0.862197
0.862197
0.862197
0.862197
0.862197
0.862197
0.862197
0.862197
0.862197
0.862197
SCALARS Coverage7 float 1
LOOKUP_TABLE default
0.77147
0.77147
0.77147
0.77147
0.77147
0.77147
0.77147
0.77147
0.77147
0.77147
0.77147
SCALARS Coverage8 float 1
LOOKUP_TABLE default
0.799109
0.799109
0.799109
0.799109
0.799109
0.799109
0.799109
0.799109
0.799109
0.799109
0.799109
SCALARS Coverage9 float 1
LOOKUP_TABLE default
0.0093129
0.0093129
0.0093129
0.0093129
0.0093129
0.0093129
0.0093129
0.0093129
0.0093129
0.0093129
0.0093129
SCALARS Coverage10 float 1
LOOKUP_TABLE default
0.191578
0.191578
0.191578
0.191578
0.191578
0.191578
0.191578
0.191578
0.191578
0.191578
0.191578
SCALARS Coverage11 float 1
LOOKUP_TABLE default
0.0138895
0.0138895
0.0138895
0.0138895
0.0138895
0.0138895
0.0138895
0.0138895
0.0138895
0.0138895
0.0138895
