# vtk DataFile Version 2.0
2D Surface
ASCII
DATASET UNSTRUCTURED_GRID
POINTS 11 float
0 0.992532 0. 
1 0.992532 0. 
2 0.992532 0. 
3 0.992532 0. 
4 0.992532 0. 
5 0.992532 0. 
6 0.992532 0. 
7 0.992532 0. 
8 0.992532 0. 
9 0.992532 0. 
10 0.992532 0. 
CELLS 10 30
2 0 1 
2 1 2 
2 2 3 
2 3 4 
2 4 5 
2 5 6 
2 6 7 
2 7 8 
2 8 9 
2 9 10 
CELL_TYPES 10
3
3
3
3
3
3
3
3
3
3
POINT_DATA 11
SCALARS Velocities float 1
LOOKUP_TABLE default
0.0453234
0.0453234
0.0453234
0.0453234
0.0453234
0.0453234
0.0453234
0.0453234
0.0453234
0.0453234
0.0453234
SCALARS Coverage0 float 1
LOOKUP_TABLE default
0.872778
0.872778
0.872778
0.872778
0.872778
0.872778
0.872778
0.872778
0.872778
0.872778
0.872778
SCALARS Coverage1 float 1
LOOKUP_TABLE default
0.653543
0.653543
0.653543
0.653543
0.653543
0.653543
0.653543
0.653543
0.653543
0.653543
0.653543
SCALARS Coverage2 float 1
LOOKUP_TABLE default
0.653726
0.653726
0.653726
0.653726
0.653726
0.653726
0.653726
0.653726
0.653726
0.653726
0.653726
SCALARS Coverage3 float 1
LOOKUP_TABLE default
0.112137
0.112137
0.112137
0.112137
0.112137
0.112137
0.112137
0.112137
0.112137
0.112137
0.112137
SCALARS Coverage4 float 1
LOOKUP_TABLE default
0.234137
0.234137
0.234137
0.234137
0.234137
0.234137
0.234137
0.234137
0.234137
0.234137
0.234137
SCALARS Coverage5 float 1
LOOKUP_TABLE default
0.104673
0.104673
0.104673
0.104673
0.104673
0.104673
0.104673
0.104673
0.104673
0.104673
0.104673
SCALARS Coverage6 float 1
LOOKUP_TABLE default
0.871374
0.871374
0.871374
0.871374
0.871374
0.871374
0.871374
0.871374
0.871374
0.871374
0.871374
SCALARS Coverage7 float 1
LOOKUP_TABLE default
0.957289
0.957289
0.957289
0.957289
0.957289
0.957289
0.957289
0.957289
0.957289
0.957289
0.957289
SCALARS Coverage8 float 1
LOOKUP_TABLE default
0.984914
0.984914
0.984914
0.984914
0.984914
0.984914
0.984914
0.984914
0.984914
0.984914
0.984914
SCALARS Coverage9 float 1
LOOKUP_TABLE default
0.000183382
0.000183382
0.000183382
0.000183382
0.000183382
0.000183382
0.000183382
0.000183382
0.000183382
0.000183382
0.000183382
SCALARS Coverage10 float 1
LOOKUP_TABLE default
0.0149022
0.0149022
0.0149022
0.0149022
0.0149022
0.0149022
0.0149022
0.0149022
0.0149022
0.0149022
0.0149022
SCALARS Coverage11 float 1
LOOKUP_TABLE default
0
0
0
0
0
0
0
0
0
0
0
