# vtk DataFile Version 2.0
2D Surface
ASCII
DATASET UNSTRUCTURED_GRID
POINTS 11 float
0 1.12342 0. 
1 1.12342 0. 
2 1.12342 0. 
3 1.12342 0. 
4 1.12342 0. 
5 1.12342 0. 
6 1.12342 0. 
7 1.12342 0. 
8 1.12342 0. 
9 1.12342 0. 
10 1.12342 0. 
CELLS 10 30
2 0 1 
2 1 2 
2 2 3 
2 3 4 
2 4 5 
2 5 6 
2 6 7 
2 7 8 
2 8 9 
2 9 10 
CELL_TYPES 10
3
3
3
3
3
3
3
3
3
3
POINT_DATA 11
SCALARS Velocities float 1
LOOKUP_TABLE default
2.6952e-05
2.6952e-05
2.6952e-05
2.6952e-05
2.6952e-05
2.6952e-05
2.6952e-05
2.6952e-05
2.6952e-05
2.6952e-05
2.6952e-05
SCALARS Coverage0 float 1
LOOKUP_TABLE default
0.957275
0.957275
0.957275
0.957275
0.957275
0.957275
0.957275
0.957275
0.957275
0.957275
0.957275
SCALARS Coverage1 float 1
LOOKUP_TABLE default
0.871327
0.871327
0.871327
0.871327
0.871327
0.871327
0.871327
0.871327
0.871327
0.871327
0.871327
SCALARS Coverage2 float 1
LOOKUP_TABLE default
0.87151
0.87151
0.87151
0.87151
0.87151
0.87151
0.87151
0.87151
0.87151
0.87151
0.87151
SCALARS Coverage3 float 1
LOOKUP_TABLE default
0.027639
0.027639
0.027639
0.027639
0.027639
0.027639
0.027639
0.027639
0.027639
0.027639
0.027639
SCALARS Coverage4 float 1
LOOKUP_TABLE default
0.100851
0.100851
0.100851
0.100851
0.100851
0.100851
0.100851
0.100851
0.100851
0.100851
0.100851
SCALARS Coverage5 float 1
LOOKUP_TABLE default
0
0
0
0
0
0
0
0
0
0
0
SCALARS Coverage6 float 1
LOOKUP_TABLE default
0.871184
0.871184
0.871184
0.871184
0.871184
0.871184
0.871184
0.871184
0.871184
0.871184
0.871184
SCALARS Coverage7 float 1
LOOKUP_TABLE default
0.949254
0.949254
0.949254
0.949254
0.949254
0.949254
0.949254
0.949254
0.949254
0.949254
0.949254
SCALARS Coverage8 float 1
LOOKUP_TABLE default
0.976893
0.976893
0.976893
0.976893
0.976893
0.976893
0.976893
0.976893
0.976893
0.976893
0.976893
SCALARS Coverage9 float 1
LOOKUP_TABLE default
0.000326315
0.000326315
0.000326315
0.000326315
0.000326315
0.000326315
0.000326315
0.000326315
0.000326315
0.000326315
0.000326315
SCALARS Coverage10 float 1
LOOKUP_TABLE default
0.0227811
0.0227811
0.0227811
0.0227811
0.0227811
0.0227811
0.0227811
0.0227811
0.0227811
0.0227811
0.0227811
SCALARS Coverage11 float 1
LOOKUP_TABLE default
0.000248979
0.000248979
0.000248979
0.000248979
0.000248979
0.000248979
0.000248979
0.000248979
0.000248979
0.000248979
0.000248979
