# vtk DataFile Version 2.0
2D Surface
ASCII
DATASET UNSTRUCTURED_GRID
POINTS 11 float
0 1.9402 0. 
1 1.9402 0. 
2 1.9402 0. 
3 1.9402 0. 
4 1.9402 0. 
5 1.9402 0. 
6 1.9402 0. 
7 1.9402 0. 
8 1.9402 0. 
9 1.9402 0. 
10 1.9402 0. 
CELLS 10 30
2 0 1 
2 1 2 
2 2 3 
2 3 4 
2 4 5 
2 5 6 
2 6 7 
2 7 8 
2 8 9 
2 9 10 
CELL_TYPES 10
3
3
3
3
3
3
3
3
3
3
POINT_DATA 11
SCALARS Velocities float 1
LOOKUP_TABLE default
0.10119
0.10119
0.10119
0.10119
0.10119
0.10119
0.10119
0.10119
0.10119
0.10119
0.10119
SCALARS Coverage0 float 1
LOOKUP_TABLE default
0.711185
0.711185
0.711185
0.711185
0.711185
0.711185
0.711185
0.711185
0.711185
0.711185
0.711185
SCALARS Coverage1 float 1
LOOKUP_TABLE default
0.393314
0.393314
0.393314
0.393314
0.393314
0.393314
0.393314
0.393314
0.393314
0.393314
0.393314
SCALARS Coverage2 float 1
LOOKUP_TABLE default
0.393497
0.393497
0.393497
0.393497
0.393497
0.393497
0.393497
0.393497
0.393497
0.393497
0.393497
SCALARS Coverage3 float 1
LOOKUP_TABLE default
0.273729
0.273729
0.273729
0.273729
0.273729
0.273729
0.273729
0.273729
0.273729
0.273729
0.273729
SCALARS Coverage4 float 1
LOOKUP_TABLE default
0.332774
0.332774
0.332774
0.332774
0.332774
0.332774
0.332774
0.332774
0.332774
0.332774
0.332774
SCALARS Coverage5 float 1
LOOKUP_TABLE default
0.233695
0.233695
0.233695
0.233695
0.233695
0.233695
0.233695
0.233695
0.233695
0.233695
0.233695
SCALARS Coverage6 float 1
LOOKUP_TABLE default
0.871327
0.871327
0.871327
0.871327
0.871327
0.871327
0.871327
0.871327
0.871327
0.871327
0.871327
SCALARS Coverage7 float 1
LOOKUP_TABLE default
0.957275
0.957275
0.957275
0.957275
0.957275
0.957275
0.957275
0.957275
0.957275
0.957275
0.957275
SCALARS Coverage8 float 1
LOOKUP_TABLE default
0.984914
0.984914
0.984914
0.984914
0.984914
0.984914
0.984914
0.984914
0.984914
0.984914
0.984914
SCALARS Coverage9 float 1
LOOKUP_TABLE default
0.000183386
0.000183386
0.000183386
0.000183386
0.000183386
0.000183386
0.000183386
0.000183386
0.000183386
0.000183386
0.000183386
SCALARS Coverage10 float 1
LOOKUP_TABLE default
0.0149024
0.0149024
0.0149024
0.0149024
0.0149024
0.0149024
0.0149024
0.0149024
0.0149024
0.0149024
0.0149024
SCALARS Coverage11 float 1
LOOKUP_TABLE default
0
0
0
0
0
0
0
0
0
0
0
