# vtk DataFile Version 2.0
2D Surface
ASCII
DATASET UNSTRUCTURED_GRID
POINTS 11 float
0 3.40515 0. 
1 3.40515 0. 
2 3.40515 0. 
3 3.40515 0. 
4 3.40515 0. 
5 3.40515 0. 
6 3.40515 0. 
7 3.40515 0. 
8 3.40515 0. 
9 3.40515 0. 
10 3.40515 0. 
CELLS 10 30
2 0 1 
2 1 2 
2 2 3 
2 3 4 
2 4 5 
2 5 6 
2 6 7 
2 7 8 
2 8 9 
2 9 10 
CELL_TYPES 10
3
3
3
3
3
3
3
3
3
3
POINT_DATA 11
SCALARS Velocities float 1
LOOKUP_TABLE default
0.14741
0.14741
0.14741
0.14741
0.14741
0.14741
0.14741
0.14741
0.14741
0.14741
0.14741
SCALARS Coverage0 float 1
LOOKUP_TABLE default
0.569135
0.569135
0.569135
0.569135
0.569135
0.569135
0.569135
0.569135
0.569135
0.569135
0.569135
SCALARS Coverage1 float 1
LOOKUP_TABLE default
0.241033
0.241033
0.241033
0.241033
0.241033
0.241033
0.241033
0.241033
0.241033
0.241033
0.241033
SCALARS Coverage2 float 1
LOOKUP_TABLE default
0.241216
0.241216
0.241216
0.241216
0.241216
0.241216
0.241216
0.241216
0.241216
0.241216
0.241216
SCALARS Coverage3 float 1
LOOKUP_TABLE default
0.41578
0.41578
0.41578
0.41578
0.41578
0.41578
0.41578
0.41578
0.41578
0.41578
0.41578
SCALARS Coverage4 float 1
LOOKUP_TABLE default
0.343004
0.343004
0.343004
0.343004
0.343004
0.343004
0.343004
0.343004
0.343004
0.343004
0.343004
SCALARS Coverage5 float 1
LOOKUP_TABLE default
0.340438
0.340438
0.340438
0.340438
0.340438
0.340438
0.340438
0.340438
0.340438
0.340438
0.340438
SCALARS Coverage6 float 1
LOOKUP_TABLE default
0.871327
0.871327
0.871327
0.871327
0.871327
0.871327
0.871327
0.871327
0.871327
0.871327
0.871327
SCALARS Coverage7 float 1
LOOKUP_TABLE default
0.957275
0.957275
0.957275
0.957275
0.957275
0.957275
0.957275
0.957275
0.957275
0.957275
0.957275
SCALARS Coverage8 float 1
LOOKUP_TABLE default
0.984914
0.984914
0.984914
0.984914
0.984914
0.984914
0.984914
0.984914
0.984914
0.984914
0.984914
SCALARS Coverage9 float 1
LOOKUP_TABLE default
0.000183386
0.000183386
0.000183386
0.000183386
0.000183386
0.000183386
0.000183386
0.000183386
0.000183386
0.000183386
0.000183386
SCALARS Coverage10 float 1
LOOKUP_TABLE default
0.0149024
0.0149024
0.0149024
0.0149024
0.0149024
0.0149024
0.0149024
0.0149024
0.0149024
0.0149024
0.0149024
SCALARS Coverage11 float 1
LOOKUP_TABLE default
0
0
0
0
0
0
0
0
0
0
0
