# vtk DataFile Version 2.0
2D Surface
ASCII
DATASET UNSTRUCTURED_GRID
POINTS 11 float
0 1.25908 0. 
1 1.25908 0. 
2 1.25908 0. 
3 1.25908 0. 
4 1.25908 0. 
5 1.25908 0. 
6 1.25908 0. 
7 1.25908 0. 
8 1.25908 0. 
9 1.25908 0. 
10 1.25908 0. 
CELLS 10 30
2 0 1 
2 1 2 
2 2 3 
2 3 4 
2 4 5 
2 5 6 
2 6 7 
2 7 8 
2 8 9 
2 9 10 
CELL_TYPES 10
3
3
3
3
3
3
3
3
3
3
POINT_DATA 11
SCALARS Velocities float 1
LOOKUP_TABLE default
0.226977
0.226977
0.226977
0.226977
0.226977
0.226977
0.226977
0.226977
0.226977
0.226977
0.226977
SCALARS Coverage0 float 1
LOOKUP_TABLE default
0.313258
0.313258
0.313258
0.313258
0.313258
0.313258
0.313258
0.313258
0.313258
0.313258
0.313258
SCALARS Coverage1 float 1
LOOKUP_TABLE default
0.0729409
0.0729409
0.0729409
0.0729409
0.0729409
0.0729409
0.0729409
0.0729409
0.0729409
0.0729409
0.0729409
SCALARS Coverage2 float 1
LOOKUP_TABLE default
0.0731243
0.0731243
0.0731243
0.0731243
0.0731243
0.0731243
0.0731243
0.0731243
0.0731243
0.0731243
0.0731243
SCALARS Coverage3 float 1
LOOKUP_TABLE default
0.671656
0.671656
0.671656
0.671656
0.671656
0.671656
0.671656
0.671656
0.671656
0.671656
0.671656
SCALARS Coverage4 float 1
LOOKUP_TABLE default
0.25522
0.25522
0.25522
0.25522
0.25522
0.25522
0.25522
0.25522
0.25522
0.25522
0.25522
SCALARS Coverage5 float 1
LOOKUP_TABLE default
0.524196
0.524196
0.524196
0.524196
0.524196
0.524196
0.524196
0.524196
0.524196
0.524196
0.524196
SCALARS Coverage6 float 1
LOOKUP_TABLE default
0.871327
0.871327
0.871327
0.871327
0.871327
0.871327
0.871327
0.871327
0.871327
0.871327
0.871327
SCALARS Coverage7 float 1
LOOKUP_TABLE default
0.957275
0.957275
0.957275
0.957275
0.957275
0.957275
0.957275
0.957275
0.957275
0.957275
0.957275
SCALARS Coverage8 float 1
LOOKUP_TABLE default
0.984914
0.984914
0.984914
0.984914
0.984914
0.984914
0.984914
0.984914
0.984914
0.984914
0.984914
SCALARS Coverage9 float 1
LOOKUP_TABLE default
0.000183385
0.000183385
0.000183385
0.000183385
0.000183385
0.000183385
0.000183385
0.000183385
0.000183385
0.000183385
0.000183385
SCALARS Coverage10 float 1
LOOKUP_TABLE default
0.0149024
0.0149024
0.0149024
0.0149024
0.0149024
0.0149024
0.0149024
0.0149024
0.0149024
0.0149024
0.0149024
SCALARS Coverage11 float 1
LOOKUP_TABLE default
0
0
0
0
0
0
0
0
0
0
0
