# vtk DataFile Version 2.0
2D Surface
ASCII
DATASET UNSTRUCTURED_GRID
POINTS 11 float
0 2.14108 0. 
1 2.14108 0. 
2 2.14108 0. 
3 2.14108 0. 
4 2.14108 0. 
5 2.14108 0. 
6 2.14108 0. 
7 2.14108 0. 
8 2.14108 0. 
9 2.14108 0. 
10 2.14108 0. 
CELLS 10 30
2 0 1 
2 1 2 
2 2 3 
2 3 4 
2 4 5 
2 5 6 
2 6 7 
2 7 8 
2 8 9 
2 9 10 
CELL_TYPES 10
3
3
3
3
3
3
3
3
3
3
POINT_DATA 11
SCALARS Velocities float 1
LOOKUP_TABLE default
0.320337
0.320337
0.320337
0.320337
0.320337
0.320337
0.320337
0.320337
0.320337
0.320337
0.320337
SCALARS Coverage0 float 1
LOOKUP_TABLE default
7.39809e-07
7.39809e-07
7.39809e-07
7.39809e-07
7.39809e-07
7.39809e-07
7.39809e-07
7.39809e-07
7.39809e-07
7.39809e-07
7.39809e-07
SCALARS Coverage1 float 1
LOOKUP_TABLE default
1.81561e-08
1.81561e-08
1.81561e-08
1.81561e-08
1.81561e-08
1.81561e-08
1.81561e-08
1.81561e-08
1.81561e-08
1.81561e-08
1.81561e-08
SCALARS Coverage2 float 1
LOOKUP_TABLE default
0.000183404
0.000183404
0.000183404
0.000183404
0.000183404
0.000183404
0.000183404
0.000183404
0.000183404
0.000183404
0.000183404
SCALARS Coverage3 float 1
LOOKUP_TABLE default
0.984913
0.984913
0.984913
0.984913
0.984913
0.984913
0.984913
0.984913
0.984913
0.984913
0.984913
SCALARS Coverage4 float 1
LOOKUP_TABLE default
0.0149032
0.0149032
0.0149032
0.0149032
0.0149032
0.0149032
0.0149032
0.0149032
0.0149032
0.0149032
0.0149032
SCALARS Coverage5 float 1
LOOKUP_TABLE default
0.739809
0.739809
0.739809
0.739809
0.739809
0.739809
0.739809
0.739809
0.739809
0.739809
0.739809
SCALARS Coverage6 float 1
LOOKUP_TABLE default
0.871327
0.871327
0.871327
0.871327
0.871327
0.871327
0.871327
0.871327
0.871327
0.871327
0.871327
SCALARS Coverage7 float 1
LOOKUP_TABLE default
0.957275
0.957275
0.957275
0.957275
0.957275
0.957275
0.957275
0.957275
0.957275
0.957275
0.957275
SCALARS Coverage8 float 1
LOOKUP_TABLE default
0.984914
0.984914
0.984914
0.984914
0.984914
0.984914
0.984914
0.984914
0.984914
0.984914
0.984914
SCALARS Coverage9 float 1
LOOKUP_TABLE default
0.000183386
0.000183386
0.000183386
0.000183386
0.000183386
0.000183386
0.000183386
0.000183386
0.000183386
0.000183386
0.000183386
SCALARS Coverage10 float 1
LOOKUP_TABLE default
0.0149024
0.0149024
0.0149024
0.0149024
0.0149024
0.0149024
0.0149024
0.0149024
0.0149024
0.0149024
0.0149024
SCALARS Coverage11 float 1
LOOKUP_TABLE default
0
0
0
0
0
0
0
0
0
0
0
