# vtk DataFile Version 2.0
2D Surface
ASCII
DATASET UNSTRUCTURED_GRID
POINTS 11 float
0 0.614603 0. 
1 0.614603 0. 
2 0.614603 0. 
3 0.614603 0. 
4 0.614603 0. 
5 0.614603 0. 
6 0.614603 0. 
7 0.614603 0. 
8 0.614603 0. 
9 0.614603 0. 
10 0.614603 0. 
CELLS 10 30
2 0 1 
2 1 2 
2 2 3 
2 3 4 
2 4 5 
2 5 6 
2 6 7 
2 7 8 
2 8 9 
2 9 10 
CELL_TYPES 10
3
3
3
3
3
3
3
3
3
3
POINT_DATA 11
SCALARS Velocities float 1
LOOKUP_TABLE default
2.95592e-05
2.95592e-05
2.95592e-05
2.95592e-05
2.95592e-05
2.95592e-05
2.95592e-05
2.95592e-05
2.95592e-05
2.95592e-05
2.95592e-05
SCALARS Coverage0 float 1
LOOKUP_TABLE default
0.956945
0.956945
0.956945
0.956945
0.956945
0.956945
0.956945
0.956945
0.956945
0.956945
0.956945
SCALARS Coverage1 float 1
LOOKUP_TABLE default
0.87137
0.87137
0.87137
0.87137
0.87137
0.87137
0.87137
0.87137
0.87137
0.87137
0.87137
SCALARS Coverage2 float 1
LOOKUP_TABLE default
0.871557
0.871557
0.871557
0.871557
0.871557
0.871557
0.871557
0.871557
0.871557
0.871557
0.871557
SCALARS Coverage3 float 1
LOOKUP_TABLE default
0.0276251
0.0276251
0.0276251
0.0276251
0.0276251
0.0276251
0.0276251
0.0276251
0.0276251
0.0276251
0.0276251
SCALARS Coverage4 float 1
LOOKUP_TABLE default
0.100818
0.100818
0.100818
0.100818
0.100818
0.100818
0.100818
0.100818
0.100818
0.100818
0.100818
SCALARS Coverage5 float 1
LOOKUP_TABLE default
0
0
0
0
0
0
0
0
0
0
0
SCALARS Coverage6 float 1
LOOKUP_TABLE default
0.871205
0.871205
0.871205
0.871205
0.871205
0.871205
0.871205
0.871205
0.871205
0.871205
0.871205
SCALARS Coverage7 float 1
LOOKUP_TABLE default
0.947939
0.947939
0.947939
0.947939
0.947939
0.947939
0.947939
0.947939
0.947939
0.947939
0.947939
SCALARS Coverage8 float 1
LOOKUP_TABLE default
0.975565
0.975565
0.975565
0.975565
0.975565
0.975565
0.975565
0.975565
0.975565
0.975565
0.975565
SCALARS Coverage9 float 1
LOOKUP_TABLE default
0.000352416
0.000352416
0.000352416
0.000352416
0.000352416
0.000352416
0.000352416
0.000352416
0.000352416
0.000352416
0.000352416
SCALARS Coverage10 float 1
LOOKUP_TABLE default
0.024083
0.024083
0.024083
0.024083
0.024083
0.024083
0.024083
0.024083
0.024083
0.024083
0.024083
SCALARS Coverage11 float 1
LOOKUP_TABLE default
0.000273064
0.000273064
0.000273064
0.000273064
0.000273064
0.000273064
0.000273064
0.000273064
0.000273064
0.000273064
0.000273064
