# vtk DataFile Version 2.0
2D Surface
ASCII
DATASET UNSTRUCTURED_GRID
POINTS 11 float
0 0.320554 0. 
1 0.320554 0. 
2 0.320554 0. 
3 0.320554 0. 
4 0.320554 0. 
5 0.320554 0. 
6 0.320554 0. 
7 0.320554 0. 
8 0.320554 0. 
9 0.320554 0. 
10 0.320554 0. 
CELLS 10 30
2 0 1 
2 1 2 
2 2 3 
2 3 4 
2 4 5 
2 5 6 
2 6 7 
2 7 8 
2 8 9 
2 9 10 
CELL_TYPES 10
3
3
3
3
3
3
3
3
3
3
POINT_DATA 11
SCALARS Velocities float 1
LOOKUP_TABLE default
0.170557
0.170557
0.170557
0.170557
0.170557
0.170557
0.170557
0.170557
0.170557
0.170557
0.170557
SCALARS Coverage0 float 1
LOOKUP_TABLE default
0.495643
0.495643
0.495643
0.495643
0.495643
0.495643
0.495643
0.495643
0.495643
0.495643
0.495643
SCALARS Coverage1 float 1
LOOKUP_TABLE default
0.180967
0.180967
0.180967
0.180967
0.180967
0.180967
0.180967
0.180967
0.180967
0.180967
0.180967
SCALARS Coverage2 float 1
LOOKUP_TABLE default
0.181154
0.181154
0.181154
0.181154
0.181154
0.181154
0.181154
0.181154
0.181154
0.181154
0.181154
SCALARS Coverage3 float 1
LOOKUP_TABLE default
0.488927
0.488927
0.488927
0.488927
0.488927
0.488927
0.488927
0.488927
0.488927
0.488927
0.488927
SCALARS Coverage4 float 1
LOOKUP_TABLE default
0.329918
0.329918
0.329918
0.329918
0.329918
0.329918
0.329918
0.329918
0.329918
0.329918
0.329918
SCALARS Coverage5 float 1
LOOKUP_TABLE default
0.393896
0.393896
0.393896
0.393896
0.393896
0.393896
0.393896
0.393896
0.393896
0.393896
0.393896
SCALARS Coverage6 float 1
LOOKUP_TABLE default
0.978679
0.978679
0.978679
0.978679
0.978679
0.978679
0.978679
0.978679
0.978679
0.978679
0.978679
SCALARS Coverage7 float 1
LOOKUP_TABLE default
0.98457
0.98457
0.98457
0.98457
0.98457
0.98457
0.98457
0.98457
0.98457
0.98457
0.98457
SCALARS Coverage8 float 1
LOOKUP_TABLE default
0.98457
0.98457
0.98457
0.98457
0.98457
0.98457
0.98457
0.98457
0.98457
0.98457
0.98457
SCALARS Coverage9 float 1
LOOKUP_TABLE default
0.000187296
0.000187296
0.000187296
0.000187296
0.000187296
0.000187296
0.000187296
0.000187296
0.000187296
0.000187296
0.000187296
SCALARS Coverage10 float 1
LOOKUP_TABLE default
0.0152427
0.0152427
0.0152427
0.0152427
0.0152427
0.0152427
0.0152427
0.0152427
0.0152427
0.0152427
0.0152427
SCALARS Coverage11 float 1
LOOKUP_TABLE default
0
0
0
0
0
0
0
0
0
0
0
