# vtk DataFile Version 2.0
2D Surface
ASCII
DATASET UNSTRUCTURED_GRID
POINTS 11 float
0 0.614423 0. 
1 0.614423 0. 
2 0.614423 0. 
3 0.614423 0. 
4 0.614423 0. 
5 0.614423 0. 
6 0.614423 0. 
7 0.614423 0. 
8 0.614423 0. 
9 0.614423 0. 
10 0.614423 0. 
CELLS 10 30
2 0 1 
2 1 2 
2 2 3 
2 3 4 
2 4 5 
2 5 6 
2 6 7 
2 7 8 
2 8 9 
2 9 10 
CELL_TYPES 10
3
3
3
3
3
3
3
3
3
3
POINT_DATA 11
SCALARS Velocities float 1
LOOKUP_TABLE default
0.000239765
0.000239765
0.000239765
0.000239765
0.000239765
0.000239765
0.000239765
0.000239765
0.000239765
0.000239765
0.000239765
SCALARS Coverage0 float 1
LOOKUP_TABLE default
0.956945
0.956945
0.956945
0.956945
0.956945
0.956945
0.956945
0.956945
0.956945
0.956945
0.956945
SCALARS Coverage1 float 1
LOOKUP_TABLE default
0.87137
0.87137
0.87137
0.87137
0.87137
0.87137
0.87137
0.87137
0.87137
0.87137
0.87137
SCALARS Coverage2 float 1
LOOKUP_TABLE default
0.871557
0.871557
0.871557
0.871557
0.871557
0.871557
0.871557
0.871557
0.871557
0.871557
0.871557
SCALARS Coverage3 float 1
LOOKUP_TABLE default
0.0276251
0.0276251
0.0276251
0.0276251
0.0276251
0.0276251
0.0276251
0.0276251
0.0276251
0.0276251
0.0276251
SCALARS Coverage4 float 1
LOOKUP_TABLE default
0.100818
0.100818
0.100818
0.100818
0.100818
0.100818
0.100818
0.100818
0.100818
0.100818
0.100818
SCALARS Coverage5 float 1
LOOKUP_TABLE default
0
0
0
0
0
0
0
0
0
0
0
SCALARS Coverage6 float 1
LOOKUP_TABLE default
0.86954
0.86954
0.86954
0.86954
0.86954
0.86954
0.86954
0.86954
0.86954
0.86954
0.86954
SCALARS Coverage7 float 1
LOOKUP_TABLE default
0.891816
0.891816
0.891816
0.891816
0.891816
0.891816
0.891816
0.891816
0.891816
0.891816
0.891816
SCALARS Coverage8 float 1
LOOKUP_TABLE default
0.919441
0.919441
0.919441
0.919441
0.919441
0.919441
0.919441
0.919441
0.919441
0.919441
0.919441
SCALARS Coverage9 float 1
LOOKUP_TABLE default
0.0020167
0.0020167
0.0020167
0.0020167
0.0020167
0.0020167
0.0020167
0.0020167
0.0020167
0.0020167
0.0020167
SCALARS Coverage10 float 1
LOOKUP_TABLE default
0.0785424
0.0785424
0.0785424
0.0785424
0.0785424
0.0785424
0.0785424
0.0785424
0.0785424
0.0785424
0.0785424
SCALARS Coverage11 float 1
LOOKUP_TABLE default
0.00221492
0.00221492
0.00221492
0.00221492
0.00221492
0.00221492
0.00221492
0.00221492
0.00221492
0.00221492
0.00221492
