# vtk DataFile Version 2.0
2D Surface
ASCII
DATASET UNSTRUCTURED_GRID
POINTS 11 float
0 0.964467 0. 
1 0.964467 0. 
2 0.964467 0. 
3 0.964467 0. 
4 0.964467 0. 
5 0.964467 0. 
6 0.964467 0. 
7 0.964467 0. 
8 0.964467 0. 
9 0.964467 0. 
10 0.964467 0. 
CELLS 10 30
2 0 1 
2 1 2 
2 2 3 
2 3 4 
2 4 5 
2 5 6 
2 6 7 
2 7 8 
2 8 9 
2 9 10 
CELL_TYPES 10
3
3
3
3
3
3
3
3
3
3
POINT_DATA 11
SCALARS Velocities float 1
LOOKUP_TABLE default
0.0683314
0.0683314
0.0683314
0.0683314
0.0683314
0.0683314
0.0683314
0.0683314
0.0683314
0.0683314
0.0683314
SCALARS Coverage0 float 1
LOOKUP_TABLE default
0.807962
0.807962
0.807962
0.807962
0.807962
0.807962
0.807962
0.807962
0.807962
0.807962
0.807962
SCALARS Coverage1 float 1
LOOKUP_TABLE default
0.533767
0.533767
0.533767
0.533767
0.533767
0.533767
0.533767
0.533767
0.533767
0.533767
0.533767
SCALARS Coverage2 float 1
LOOKUP_TABLE default
0.533951
0.533951
0.533951
0.533951
0.533951
0.533951
0.533951
0.533951
0.533951
0.533951
0.533951
SCALARS Coverage3 float 1
LOOKUP_TABLE default
0.176952
0.176952
0.176952
0.176952
0.176952
0.176952
0.176952
0.176952
0.176952
0.176952
0.176952
SCALARS Coverage4 float 1
LOOKUP_TABLE default
0.289097
0.289097
0.289097
0.289097
0.289097
0.289097
0.289097
0.289097
0.289097
0.289097
0.289097
SCALARS Coverage5 float 1
LOOKUP_TABLE default
0.157809
0.157809
0.157809
0.157809
0.157809
0.157809
0.157809
0.157809
0.157809
0.157809
0.157809
SCALARS Coverage6 float 1
LOOKUP_TABLE default
0.871374
0.871374
0.871374
0.871374
0.871374
0.871374
0.871374
0.871374
0.871374
0.871374
0.871374
SCALARS Coverage7 float 1
LOOKUP_TABLE default
0.957289
0.957289
0.957289
0.957289
0.957289
0.957289
0.957289
0.957289
0.957289
0.957289
0.957289
SCALARS Coverage8 float 1
LOOKUP_TABLE default
0.984914
0.984914
0.984914
0.984914
0.984914
0.984914
0.984914
0.984914
0.984914
0.984914
0.984914
SCALARS Coverage9 float 1
LOOKUP_TABLE default
0.000183382
0.000183382
0.000183382
0.000183382
0.000183382
0.000183382
0.000183382
0.000183382
0.000183382
0.000183382
0.000183382
SCALARS Coverage10 float 1
LOOKUP_TABLE default
0.0149022
0.0149022
0.0149022
0.0149022
0.0149022
0.0149022
0.0149022
0.0149022
0.0149022
0.0149022
0.0149022
SCALARS Coverage11 float 1
LOOKUP_TABLE default
0
0
0
0
0
0
0
0
0
0
0
