# vtk DataFile Version 2.0
2D Surface
ASCII
DATASET UNSTRUCTURED_GRID
POINTS 11 float
0 0.5673 0. 
1 0.5673 0. 
2 0.5673 0. 
3 0.5673 0. 
4 0.5673 0. 
5 0.5673 0. 
6 0.5673 0. 
7 0.5673 0. 
8 0.5673 0. 
9 0.5673 0. 
10 0.5673 0. 
CELLS 10 30
2 0 1 
2 1 2 
2 2 3 
2 3 4 
2 4 5 
2 5 6 
2 6 7 
2 7 8 
2 8 9 
2 9 10 
CELL_TYPES 10
3
3
3
3
3
3
3
3
3
3
POINT_DATA 11
SCALARS Velocities float 1
LOOKUP_TABLE default
0.152473
0.152473
0.152473
0.152473
0.152473
0.152473
0.152473
0.152473
0.152473
0.152473
0.152473
SCALARS Coverage0 float 1
LOOKUP_TABLE default
0.956945
0.956945
0.956945
0.956945
0.956945
0.956945
0.956945
0.956945
0.956945
0.956945
0.956945
SCALARS Coverage1 float 1
LOOKUP_TABLE default
0.87137
0.87137
0.87137
0.87137
0.87137
0.87137
0.87137
0.87137
0.87137
0.87137
0.87137
SCALARS Coverage2 float 1
LOOKUP_TABLE default
0.871557
0.871557
0.871557
0.871557
0.871557
0.871557
0.871557
0.871557
0.871557
0.871557
0.871557
SCALARS Coverage3 float 1
LOOKUP_TABLE default
0.0276251
0.0276251
0.0276251
0.0276251
0.0276251
0.0276251
0.0276251
0.0276251
0.0276251
0.0276251
0.0276251
SCALARS Coverage4 float 1
LOOKUP_TABLE default
0.100818
0.100818
0.100818
0.100818
0.100818
0.100818
0.100818
0.100818
0.100818
0.100818
0.100818
SCALARS Coverage5 float 1
LOOKUP_TABLE default
0
0
0
0
0
0
0
0
0
0
0
SCALARS Coverage6 float 1
LOOKUP_TABLE default
0.43422
0.43422
0.43422
0.43422
0.43422
0.43422
0.43422
0.43422
0.43422
0.43422
0.43422
SCALARS Coverage7 float 1
LOOKUP_TABLE default
0.0627306
0.0627306
0.0627306
0.0627306
0.0627306
0.0627306
0.0627306
0.0627306
0.0627306
0.0627306
0.0627306
SCALARS Coverage8 float 1
LOOKUP_TABLE default
0.0903558
0.0903558
0.0903558
0.0903558
0.0903558
0.0903558
0.0903558
0.0903558
0.0903558
0.0903558
0.0903558
SCALARS Coverage9 float 1
LOOKUP_TABLE default
0.437337
0.437337
0.437337
0.437337
0.437337
0.437337
0.437337
0.437337
0.437337
0.437337
0.437337
SCALARS Coverage10 float 1
LOOKUP_TABLE default
0.472307
0.472307
0.472307
0.472307
0.472307
0.472307
0.472307
0.472307
0.472307
0.472307
0.472307
SCALARS Coverage11 float 1
LOOKUP_TABLE default
1.40852
1.40852
1.40852
1.40852
1.40852
1.40852
1.40852
1.40852
1.40852
1.40852
1.40852
