# vtk DataFile Version 2.0
2D Surface
ASCII
DATASET UNSTRUCTURED_GRID
POINTS 11 float
0 0.10578 0. 
1 0.10578 0. 
2 0.10578 0. 
3 0.10578 0. 
4 0.10578 0. 
5 0.10578 0. 
6 0.10578 0. 
7 0.10578 0. 
8 0.10578 0. 
9 0.10578 0. 
10 0.10578 0. 
CELLS 10 30
2 0 1 
2 1 2 
2 2 3 
2 3 4 
2 4 5 
2 5 6 
2 6 7 
2 7 8 
2 8 9 
2 9 10 
CELL_TYPES 10
3
3
3
3
3
3
3
3
3
3
POINT_DATA 11
SCALARS Velocities float 1
LOOKUP_TABLE default
0.00019267
0.00019267
0.00019267
0.00019267
0.00019267
0.00019267
0.00019267
0.00019267
0.00019267
0.00019267
0.00019267
SCALARS Coverage0 float 1
LOOKUP_TABLE default
0
0
0
0
0
0
0
0
0
0
0
SCALARS Coverage1 float 1
LOOKUP_TABLE default
0.978867
0.978867
0.978867
0.978867
0.978867
0.978867
0.978867
0.978867
0.978867
0.978867
0.978867
SCALARS Coverage2 float 1
LOOKUP_TABLE default
0.978867
0.978867
0.978867
0.978867
0.978867
0.978867
0.978867
0.978867
0.978867
0.978867
0.978867
SCALARS Coverage3 float 1
LOOKUP_TABLE default
0
0
0
0
0
0
0
0
0
0
0
SCALARS Coverage4 float 1
LOOKUP_TABLE default
0.0211333
0.0211333
0.0211333
0.0211333
0.0211333
0.0211333
0.0211333
0.0211333
0.0211333
0.0211333
0.0211333
SCALARS Coverage5 float 1
LOOKUP_TABLE default
0
0
0
0
0
0
0
0
0
0
0
SCALARS Coverage6 float 1
LOOKUP_TABLE default
0.977186
0.977186
0.977186
0.977186
0.977186
0.977186
0.977186
0.977186
0.977186
0.977186
0.977186
SCALARS Coverage7 float 1
LOOKUP_TABLE default
0.927701
0.927701
0.927701
0.927701
0.927701
0.927701
0.927701
0.927701
0.927701
0.927701
0.927701
SCALARS Coverage8 float 1
LOOKUP_TABLE default
0.927701
0.927701
0.927701
0.927701
0.927701
0.927701
0.927701
0.927701
0.927701
0.927701
0.927701
SCALARS Coverage9 float 1
LOOKUP_TABLE default
0.00168073
0.00168073
0.00168073
0.00168073
0.00168073
0.00168073
0.00168073
0.00168073
0.00168073
0.00168073
0.00168073
SCALARS Coverage10 float 1
LOOKUP_TABLE default
0.0706187
0.0706187
0.0706187
0.0706187
0.0706187
0.0706187
0.0706187
0.0706187
0.0706187
0.0706187
0.0706187
SCALARS Coverage11 float 1
LOOKUP_TABLE default
0.00177986
0.00177986
0.00177986
0.00177986
0.00177986
0.00177986
0.00177986
0.00177986
0.00177986
0.00177986
0.00177986
