# vtk DataFile Version 2.0
2D Surface
ASCII
DATASET UNSTRUCTURED_GRID
POINTS 11 float
0 0.241538 0. 
1 0.241538 0. 
2 0.241538 0. 
3 0.241538 0. 
4 0.241538 0. 
5 0.241538 0. 
6 0.241538 0. 
7 0.241538 0. 
8 0.241538 0. 
9 0.241538 0. 
10 0.241538 0. 
CELLS 10 30
2 0 1 
2 1 2 
2 2 3 
2 3 4 
2 4 5 
2 5 6 
2 6 7 
2 7 8 
2 8 9 
2 9 10 
CELL_TYPES 10
3
3
3
3
3
3
3
3
3
3
POINT_DATA 11
SCALARS Velocities float 1
LOOKUP_TABLE default
0.226903
0.226903
0.226903
0.226903
0.226903
0.226903
0.226903
0.226903
0.226903
0.226903
0.226903
SCALARS Coverage0 float 1
LOOKUP_TABLE default
0.313158
0.313158
0.313158
0.313158
0.313158
0.313158
0.313158
0.313158
0.313158
0.313158
0.313158
SCALARS Coverage1 float 1
LOOKUP_TABLE default
0.0730429
0.0730429
0.0730429
0.0730429
0.0730429
0.0730429
0.0730429
0.0730429
0.0730429
0.0730429
0.0730429
SCALARS Coverage2 float 1
LOOKUP_TABLE default
0.0732302
0.0732302
0.0732302
0.0732302
0.0732302
0.0732302
0.0732302
0.0732302
0.0732302
0.0732302
0.0732302
SCALARS Coverage3 float 1
LOOKUP_TABLE default
0.671412
0.671412
0.671412
0.671412
0.671412
0.671412
0.671412
0.671412
0.671412
0.671412
0.671412
SCALARS Coverage4 float 1
LOOKUP_TABLE default
0.255357
0.255357
0.255357
0.255357
0.255357
0.255357
0.255357
0.255357
0.255357
0.255357
0.255357
SCALARS Coverage5 float 1
LOOKUP_TABLE default
0.524025
0.524025
0.524025
0.524025
0.524025
0.524025
0.524025
0.524025
0.524025
0.524025
0.524025
SCALARS Coverage6 float 1
LOOKUP_TABLE default
0.978679
0.978679
0.978679
0.978679
0.978679
0.978679
0.978679
0.978679
0.978679
0.978679
0.978679
SCALARS Coverage7 float 1
LOOKUP_TABLE default
0.98457
0.98457
0.98457
0.98457
0.98457
0.98457
0.98457
0.98457
0.98457
0.98457
0.98457
SCALARS Coverage8 float 1
LOOKUP_TABLE default
0.98457
0.98457
0.98457
0.98457
0.98457
0.98457
0.98457
0.98457
0.98457
0.98457
0.98457
SCALARS Coverage9 float 1
LOOKUP_TABLE default
0.000187296
0.000187296
0.000187296
0.000187296
0.000187296
0.000187296
0.000187296
0.000187296
0.000187296
0.000187296
0.000187296
SCALARS Coverage10 float 1
LOOKUP_TABLE default
0.0152427
0.0152427
0.0152427
0.0152427
0.0152427
0.0152427
0.0152427
0.0152427
0.0152427
0.0152427
0.0152427
SCALARS Coverage11 float 1
LOOKUP_TABLE default
0
0
0
0
0
0
0
0
0
0
0
