# vtk DataFile Version 2.0
2D Surface
ASCII
DATASET UNSTRUCTURED_GRID
POINTS 11 float
0 0.104731 0. 
1 0.104731 0. 
2 0.104731 0. 
3 0.104731 0. 
4 0.104731 0. 
5 0.104731 0. 
6 0.104731 0. 
7 0.104731 0. 
8 0.104731 0. 
9 0.104731 0. 
10 0.104731 0. 
CELLS 10 30
2 0 1 
2 1 2 
2 2 3 
2 3 4 
2 4 5 
2 5 6 
2 6 7 
2 7 8 
2 8 9 
2 9 10 
CELL_TYPES 10
3
3
3
3
3
3
3
3
3
3
POINT_DATA 11
SCALARS Velocities float 1
LOOKUP_TABLE default
0.00190998
0.00190998
0.00190998
0.00190998
0.00190998
0.00190998
0.00190998
0.00190998
0.00190998
0.00190998
0.00190998
SCALARS Coverage0 float 1
LOOKUP_TABLE default
0
0
0
0
0
0
0
0
0
0
0
SCALARS Coverage1 float 1
LOOKUP_TABLE default
0.978867
0.978867
0.978867
0.978867
0.978867
0.978867
0.978867
0.978867
0.978867
0.978867
0.978867
SCALARS Coverage2 float 1
LOOKUP_TABLE default
0.978867
0.978867
0.978867
0.978867
0.978867
0.978867
0.978867
0.978867
0.978867
0.978867
0.978867
SCALARS Coverage3 float 1
LOOKUP_TABLE default
0
0
0
0
0
0
0
0
0
0
0
SCALARS Coverage4 float 1
LOOKUP_TABLE default
0.0211333
0.0211333
0.0211333
0.0211333
0.0211333
0.0211333
0.0211333
0.0211333
0.0211333
0.0211333
0.0211333
SCALARS Coverage5 float 1
LOOKUP_TABLE default
0
0
0
0
0
0
0
0
0
0
0
SCALARS Coverage6 float 1
LOOKUP_TABLE default
0.967499
0.967499
0.967499
0.967499
0.967499
0.967499
0.967499
0.967499
0.967499
0.967499
0.967499
SCALARS Coverage7 float 1
LOOKUP_TABLE default
0.773251
0.773251
0.773251
0.773251
0.773251
0.773251
0.773251
0.773251
0.773251
0.773251
0.773251
SCALARS Coverage8 float 1
LOOKUP_TABLE default
0.773251
0.773251
0.773251
0.773251
0.773251
0.773251
0.773251
0.773251
0.773251
0.773251
0.773251
SCALARS Coverage9 float 1
LOOKUP_TABLE default
0.0113679
0.0113679
0.0113679
0.0113679
0.0113679
0.0113679
0.0113679
0.0113679
0.0113679
0.0113679
0.0113679
SCALARS Coverage10 float 1
LOOKUP_TABLE default
0.215381
0.215381
0.215381
0.215381
0.215381
0.215381
0.215381
0.215381
0.215381
0.215381
0.215381
SCALARS Coverage11 float 1
LOOKUP_TABLE default
0.0176442
0.0176442
0.0176442
0.0176442
0.0176442
0.0176442
0.0176442
0.0176442
0.0176442
0.0176442
0.0176442
