# vtk DataFile Version 2.0
2D Surface
ASCII
DATASET UNSTRUCTURED_GRID
POINTS 11 float
0 2.14095 0. 
1 2.14095 0. 
2 2.14095 0. 
3 2.14095 0. 
4 2.14095 0. 
5 2.14095 0. 
6 2.14095 0. 
7 2.14095 0. 
8 2.14095 0. 
9 2.14095 0. 
10 2.14095 0. 
CELLS 10 30
2 0 1 
2 1 2 
2 2 3 
2 3 4 
2 4 5 
2 5 6 
2 6 7 
2 7 8 
2 8 9 
2 9 10 
CELL_TYPES 10
3
3
3
3
3
3
3
3
3
3
POINT_DATA 11
SCALARS Velocities float 1
LOOKUP_TABLE default
0.00014464
0.00014464
0.00014464
0.00014464
0.00014464
0.00014464
0.00014464
0.00014464
0.00014464
0.00014464
0.00014464
SCALARS Coverage0 float 1
LOOKUP_TABLE default
0.957275
0.957275
0.957275
0.957275
0.957275
0.957275
0.957275
0.957275
0.957275
0.957275
0.957275
SCALARS Coverage1 float 1
LOOKUP_TABLE default
0.871327
0.871327
0.871327
0.871327
0.871327
0.871327
0.871327
0.871327
0.871327
0.871327
0.871327
SCALARS Coverage2 float 1
LOOKUP_TABLE default
0.87151
0.87151
0.87151
0.87151
0.87151
0.87151
0.87151
0.87151
0.87151
0.87151
0.87151
SCALARS Coverage3 float 1
LOOKUP_TABLE default
0.0276389
0.0276389
0.0276389
0.0276389
0.0276389
0.0276389
0.0276389
0.0276389
0.0276389
0.0276389
0.0276389
SCALARS Coverage4 float 1
LOOKUP_TABLE default
0.100851
0.100851
0.100851
0.100851
0.100851
0.100851
0.100851
0.100851
0.100851
0.100851
0.100851
SCALARS Coverage5 float 1
LOOKUP_TABLE default
0
0
0
0
0
0
0
0
0
0
0
SCALARS Coverage6 float 1
LOOKUP_TABLE default
0.870187
0.870187
0.870187
0.870187
0.870187
0.870187
0.870187
0.870187
0.870187
0.870187
0.870187
SCALARS Coverage7 float 1
LOOKUP_TABLE default
0.911133
0.911133
0.911133
0.911133
0.911133
0.911133
0.911133
0.911133
0.911133
0.911133
0.911133
SCALARS Coverage8 float 1
LOOKUP_TABLE default
0.938772
0.938772
0.938772
0.938772
0.938772
0.938772
0.938772
0.938772
0.938772
0.938772
0.938772
SCALARS Coverage9 float 1
LOOKUP_TABLE default
0.00132351
0.00132351
0.00132351
0.00132351
0.00132351
0.00132351
0.00132351
0.00132351
0.00132351
0.00132351
0.00132351
SCALARS Coverage10 float 1
LOOKUP_TABLE default
0.0599045
0.0599045
0.0599045
0.0599045
0.0599045
0.0599045
0.0599045
0.0599045
0.0599045
0.0599045
0.0599045
SCALARS Coverage11 float 1
LOOKUP_TABLE default
0.00133617
0.00133617
0.00133617
0.00133617
0.00133617
0.00133617
0.00133617
0.00133617
0.00133617
0.00133617
0.00133617
