# vtk DataFile Version 2.0
2D Surface
ASCII
DATASET UNSTRUCTURED_GRID
POINTS 11 float
0 1.63208 0. 
1 1.63208 0. 
2 1.63208 0. 
3 1.63208 0. 
4 1.63208 0. 
5 1.63208 0. 
6 1.63208 0. 
7 1.63208 0. 
8 1.63208 0. 
9 1.63208 0. 
10 1.63208 0. 
CELLS 10 30
2 0 1 
2 1 2 
2 2 3 
2 3 4 
2 4 5 
2 5 6 
2 6 7 
2 7 8 
2 8 9 
2 9 10 
CELL_TYPES 10
3
3
3
3
3
3
3
3
3
3
POINT_DATA 11
SCALARS Velocities float 1
LOOKUP_TABLE default
0.000210445
0.000210445
0.000210445
0.000210445
0.000210445
0.000210445
0.000210445
0.000210445
0.000210445
0.000210445
0.000210445
SCALARS Coverage0 float 1
LOOKUP_TABLE default
0.957275
0.957275
0.957275
0.957275
0.957275
0.957275
0.957275
0.957275
0.957275
0.957275
0.957275
SCALARS Coverage1 float 1
LOOKUP_TABLE default
0.871327
0.871327
0.871327
0.871327
0.871327
0.871327
0.871327
0.871327
0.871327
0.871327
0.871327
SCALARS Coverage2 float 1
LOOKUP_TABLE default
0.87151
0.87151
0.87151
0.87151
0.87151
0.87151
0.87151
0.87151
0.87151
0.87151
0.87151
SCALARS Coverage3 float 1
LOOKUP_TABLE default
0.027639
0.027639
0.027639
0.027639
0.027639
0.027639
0.027639
0.027639
0.027639
0.027639
0.027639
SCALARS Coverage4 float 1
LOOKUP_TABLE default
0.100851
0.100851
0.100851
0.100851
0.100851
0.100851
0.100851
0.100851
0.100851
0.100851
0.100851
SCALARS Coverage5 float 1
LOOKUP_TABLE default
0
0
0
0
0
0
0
0
0
0
0
SCALARS Coverage6 float 1
LOOKUP_TABLE default
0.869701
0.869701
0.869701
0.869701
0.869701
0.869701
0.869701
0.869701
0.869701
0.869701
0.869701
SCALARS Coverage7 float 1
LOOKUP_TABLE default
0.897243
0.897243
0.897243
0.897243
0.897243
0.897243
0.897243
0.897243
0.897243
0.897243
0.897243
SCALARS Coverage8 float 1
LOOKUP_TABLE default
0.924882
0.924882
0.924882
0.924882
0.924882
0.924882
0.924882
0.924882
0.924882
0.924882
0.924882
SCALARS Coverage9 float 1
LOOKUP_TABLE default
0.00180899
0.00180899
0.00180899
0.00180899
0.00180899
0.00180899
0.00180899
0.00180899
0.00180899
0.00180899
0.00180899
SCALARS Coverage10 float 1
LOOKUP_TABLE default
0.0733088
0.0733088
0.0733088
0.0733088
0.0733088
0.0733088
0.0733088
0.0733088
0.0733088
0.0733088
0.0733088
SCALARS Coverage11 float 1
LOOKUP_TABLE default
0.00194406
0.00194406
0.00194406
0.00194406
0.00194406
0.00194406
0.00194406
0.00194406
0.00194406
0.00194406
0.00194406
