# vtk DataFile Version 2.0
GiD
ASCII
DATASET UNSTRUCTURED_GRID
POINTS 62 float
           0         -100            0
      33.141      -77.656       24.113
          50         -100            0
           0         -100           50
           0          -50            0
      61.563         -100         42.5
      25.761      -27.729       30.894
          50          -50           50
          75          -50            0
           0          -50           75
      66.216      -48.393       35.116
           0            0            0
         100         -100            0
           0         -100          100
      51.116         -100         87.5
      27.751      -51.671       86.908
       52.91      -74.152       87.792
          50            0            0
           0            0           50
          75      -18.333       35.625
      96.075      -34.863       16.291
        37.5      -16.667           75
      100.45         -100           65
          50            0           50
         100          -50           50
          50          -50          100
      22.907      -76.273       118.52
      117.99      -71.066       20.678
      29.167      -36.757       112.47
         100            0            0
           0            0          100
          90         -100          110
         100            0           50
          50            0          100
         150         -100            0
           0         -100          150
         100          -50          100
         150         -100           50
          50         -100          150
         150          -50            0
           0          -50          150
      123.84      -47.421       83.721
          75      -16.667        112.5
      118.12      -21.667           75
         100            0          100
      114.71      -78.486       128.87
      112.01      -39.307       119.69
         150          -50           75
          75          -50          150
         150            0            0
           0            0          150
         150         -100          100
         100         -100          150
         150            0           50
          50            0          150
      134.78      -67.857       128.87
      134.84      -38.329       130.03
         150            0          100
         100            0          150
         150         -100          150
         150          -50          150
         150            0          150
CELLS 195 975
4 5 14 22 7
4 31 22 14 36
4 38 52 31 48
4 12 2 5 8
4 31 22 36 51
4 5 14 7 3
4 29 17 8 19
4 29 17 19 23
4 17 19 23 6
4 19 23 6 7
4 6 19 7 10
4 7 6 10 1
4 7 6 1 3
4 6 19 10 17
4 19 7 10 24
4 6 10 1 4
4 10 7 1 5
4 23 6 7 9
4 19 23 7 24
4 10 19 24 20
4 10 19 20 8
4 20 10 8 24
4 10 19 8 17
4 10 8 24 12
4 19 24 20 32
4 20 19 32 29
4 20 19 29 8
4 29 20 8 39
4 19 24 32 23
4 32 19 23 29
4 8 20 24 27
4 8 20 27 39
4 20 24 27 39
4 7 10 24 5
4 7 1 5 3
4 32 20 29 53
4 8 10 17 6
4 8 10 6 4
4 10 8 12 5
4 1 10 5 2
4 5 1 2 3
4 1 10 2 4
4 24 20 32 53
4 1 6 4 3
4 10 8 5 2
4 10 8 2 4
4 23 17 6 11
4 6 7 9 3
4 24 8 27 12
4 8 27 12 39
4 27 12 39 34
4 27 12 34 37
4 39 27 34 37
4 17 8 6 4
4 27 24 12 37
4 1 2 3 0
4 1 2 0 4
4 3 1 0 4
4 17 6 11 4
4 6 11 4 18
4 24 27 39 37
4 29 20 39 53
4 10 24 5 12
4 13 3 9 14
4 37 51 47 22
4 57 53 47 43
4 57 53 43 44
4 43 57 44 46
4 44 43 46 36
4 43 46 36 41
4 46 36 41 51
4 43 46 41 57
4 36 43 41 24
4 46 44 36 48
4 44 43 36 24
4 43 41 24 47
4 43 41 47 57
4 41 24 47 22
4 41 36 24 22
4 41 47 57 46
4 41 47 46 51
4 41 47 51 22
4 57 44 46 58
4 36 46 48 45
4 36 46 45 51
4 44 43 24 32
4 44 43 32 53
4 43 24 32 53
4 24 43 47 53
4 44 46 58 48
4 48 36 45 31
4 36 45 31 51
4 45 31 51 52
4 45 31 52 48
4 52 45 48 60
4 47 57 46 56
4 57 46 56 58
4 46 47 56 55
4 56 46 55 60
4 55 56 60 47
4 56 46 60 58
4 46 55 60 45
4 46 55 45 51
4 55 60 45 59
4 45 55 59 51
4 55 60 59 51
4 60 46 45 58
4 60 45 59 52
4 45 59 52 51
4 46 47 55 51
4 55 60 51 47
4 56 60 47 57
4 56 60 57 58
4 41 36 22 51
4 46 48 45 58
4 18 30 9 21
4 18 30 21 33
4 30 21 33 28
4 21 33 28 25
4 28 21 25 15
4 25 28 15 26
4 25 28 26 48
4 28 21 15 9
4 15 28 9 26
4 21 15 9 7
4 9 15 26 13
4 21 25 15 7
4 15 25 26 16
4 15 25 16 7
4 25 26 16 36
4 15 9 7 16
4 25 16 7 24
4 33 28 25 48
4 21 33 25 7
4 15 9 16 13
4 16 25 36 24
4 15 26 13 16
4 30 21 28 9
4 33 30 28 50
4 28 9 26 40
4 26 28 40 48
4 21 33 7 23
4 21 33 23 18
4 7 21 23 9
4 23 21 18 9
4 26 9 13 40
4 16 7 24 22
4 26 13 16 14
4 16 26 14 36
4 26 13 14 38
4 13 16 14 9
4 14 16 36 22
4 14 16 22 7
4 14 16 7 9
4 28 30 9 40
4 26 13 38 35
4 26 13 35 40
4 38 26 35 40
4 14 26 38 48
4 30 28 50 40
4 36 16 24 22
4 28 50 40 54
4 54 58 48 42
4 54 58 42 33
4 42 54 33 48
4 58 42 33 44
4 42 33 44 36
4 44 42 36 48
4 58 42 44 48
4 42 33 36 25
4 42 33 25 48
4 36 42 25 48
4 25 36 48 26
4 31 14 38 48
4 20 24 39 53
4 24 7 5 22
4 5 24 22 12
4 28 50 54 33
4 54 28 33 48
4 6 11 18 23
4 18 6 23 9
4 38 26 40 48
4 14 31 36 48
4 29 49 53 39
4 61 57 60 58
4 54 28 48 40
4 18 6 9 4
4 45 48 60 58
4 47 37 22 24
4 37 22 24 12
4 47 24 53 39
4 47 37 24 39
4 7 9 3 14
4 6 9 4 3
4 14 26 48 36
CELL_TYPES 195
10
10
10
10
10
10
10
10
10
10
10
10
10
10
10
10
10
10
10
10
10
10
10
10
10
10
10
10
10
10
10
10
10
10
10
10
10
10
10
10
10
10
10
10
10
10
10
10
10
10
10
10
10
10
10
10
10
10
10
10
10
10
10
10
10
10
10
10
10
10
10
10
10
10
10
10
10
10
10
10
10
10
10
10
10
10
10
10
10
10
10
10
10
10
10
10
10
10
10
10
10
10
10
10
10
10
10
10
10
10
10
10
10
10
10
10
10
10
10
10
10
10
10
10
10
10
10
10
10
10
10
10
10
10
10
10
10
10
10
10
10
10
10
10
10
10
10
10
10
10
10
10
10
10
10
10
10
10
10
10
10
10
10
10
10
10
10
10
10
10
10
10
10
10
10
10
10
10
10
10
10
10
10
10
10
10
10
10
10
10
10
10
10
10
10
CELL_DATA 195
SCALARS Material int 1
LOOKUP_TABLE default
1
1
1
1
1
1
1
1
1
1
1
1
1
1
1
1
1
1
1
1
1
1
1
1
1
1
1
1
1
1
1
1
1
1
1
1
1
1
1
1
1
1
1
1
1
1
1
1
1
1
1
1
1
1
1
1
1
1
1
1
1
1
1
1
1
1
1
1
1
1
1
1
1
1
1
1
1
1
1
1
1
1
1
1
1
1
1
1
1
1
1
1
1
1
1
1
1
1
1
1
1
1
1
1
1
1
1
1
1
1
1
1
1
1
1
1
1
1
1
1
1
1
1
1
1
1
1
1
1
1
1
1
1
1
1
1
1
1
1
1
1
1
1
1
1
1
1
1
1
1
1
1
1
1
1
1
1
1
1
1
1
1
1
1
1
1
1
1
1
1
1
1
1
1
1
1
1
1
1
1
1
1
1
1
1
1
1
1
1
1
1
1
1
1
1

