# vtk DataFile Version 2.0
2D Surface
ASCII
DATASET UNSTRUCTURED_GRID
POINTS 11 float
0 0.382449 0. 
1 0.382449 0. 
2 0.382449 0. 
3 0.382449 0. 
4 0.382449 0. 
5 0.382449 0. 
6 0.382449 0. 
7 0.382449 0. 
8 0.382449 0. 
9 0.382449 0. 
10 0.382449 0. 
CELLS 10 30
2 0 1 
2 1 2 
2 2 3 
2 3 4 
2 4 5 
2 5 6 
2 6 7 
2 7 8 
2 8 9 
2 9 10 
CELL_TYPES 10
3
3
3
3
3
3
3
3
3
3
POINT_DATA 11
SCALARS Velocities float 1
LOOKUP_TABLE default
0.0348928
0.0348928
0.0348928
0.0348928
0.0348928
0.0348928
0.0348928
0.0348928
0.0348928
0.0348928
0.0348928
SCALARS Coverage0 float 1
LOOKUP_TABLE default
0.63691
0.63691
0.63691
0.63691
0.63691
0.63691
0.63691
0.63691
0.63691
0.63691
0.63691
SCALARS Coverage1 float 1
LOOKUP_TABLE default
0.391858
0.391858
0.391858
0.391858
0.391858
0.391858
0.391858
0.391858
0.391858
0.391858
0.391858
SCALARS Coverage2 float 1
LOOKUP_TABLE default
0.394236
0.394236
0.394236
0.394236
0.394236
0.394236
0.394236
0.394236
0.394236
0.394236
0.394236
SCALARS Coverage3 float 1
LOOKUP_TABLE default
0.272328
0.272328
0.272328
0.272328
0.272328
0.272328
0.272328
0.272328
0.272328
0.272328
0.272328
SCALARS Coverage4 float 1
LOOKUP_TABLE default
0.333436
0.333436
0.333436
0.333436
0.333436
0.333436
0.333436
0.333436
0.333436
0.333436
0.333436
SCALARS Coverage5 float 1
LOOKUP_TABLE default
0
0
0
0
0
0
0
0
0
0
0
SCALARS Coverage6 float 1
LOOKUP_TABLE default
0.266268
0.266268
0.266268
0.266268
0.266268
0.266268
0.266268
0.266268
0.266268
0.266268
0.266268
SCALARS Coverage7 float 1
LOOKUP_TABLE default
0.16747
0.16747
0.16747
0.16747
0.16747
0.16747
0.16747
0.16747
0.16747
0.16747
0.16747
SCALARS Coverage8 float 1
LOOKUP_TABLE default
0.439798
0.439798
0.439798
0.439798
0.439798
0.439798
0.439798
0.439798
0.439798
0.439798
0.439798
SCALARS Coverage9 float 1
LOOKUP_TABLE default
0.127968
0.127968
0.127968
0.127968
0.127968
0.127968
0.127968
0.127968
0.127968
0.127968
0.127968
SCALARS Coverage10 float 1
LOOKUP_TABLE default
0.432234
0.432234
0.432234
0.432234
0.432234
0.432234
0.432234
0.432234
0.432234
0.432234
0.432234
SCALARS Coverage11 float 1
LOOKUP_TABLE default
0.322335
0.322335
0.322335
0.322335
0.322335
0.322335
0.322335
0.322335
0.322335
0.322335
0.322335
