# vtk DataFile Version 2.0
2D Surface
ASCII
DATASET UNSTRUCTURED_GRID
POINTS 11 float
0 0.0677617 0. 
1 0.0677617 0. 
2 0.0677617 0. 
3 0.0677617 0. 
4 0.0677617 0. 
5 0.0677617 0. 
6 0.0677617 0. 
7 0.0677617 0. 
8 0.0677617 0. 
9 0.0677617 0. 
10 0.0677617 0. 
CELLS 10 30
2 0 1 
2 1 2 
2 2 3 
2 3 4 
2 4 5 
2 5 6 
2 6 7 
2 7 8 
2 8 9 
2 9 10 
CELL_TYPES 10
3
3
3
3
3
3
3
3
3
3
POINT_DATA 11
SCALARS Velocities float 1
LOOKUP_TABLE default
0.0245677
0.0245677
0.0245677
0.0245677
0.0245677
0.0245677
0.0245677
0.0245677
0.0245677
0.0245677
0.0245677
SCALARS Coverage0 float 1
LOOKUP_TABLE default
0
0
0
0
0
0
0
0
0
0
0
SCALARS Coverage1 float 1
LOOKUP_TABLE default
0.721503
0.721503
0.721503
0.721503
0.721503
0.721503
0.721503
0.721503
0.721503
0.721503
0.721503
SCALARS Coverage2 float 1
LOOKUP_TABLE default
0.721503
0.721503
0.721503
0.721503
0.721503
0.721503
0.721503
0.721503
0.721503
0.721503
0.721503
SCALARS Coverage3 float 1
LOOKUP_TABLE default
0
0
0
0
0
0
0
0
0
0
0
SCALARS Coverage4 float 1
LOOKUP_TABLE default
0.278497
0.278497
0.278497
0.278497
0.278497
0.278497
0.278497
0.278497
0.278497
0.278497
0.278497
SCALARS Coverage5 float 1
LOOKUP_TABLE default
0
0
0
0
0
0
0
0
0
0
0
SCALARS Coverage6 float 1
LOOKUP_TABLE default
0.625976
0.625976
0.625976
0.625976
0.625976
0.625976
0.625976
0.625976
0.625976
0.625976
0.625976
SCALARS Coverage7 float 1
LOOKUP_TABLE default
0.389457
0.389457
0.389457
0.389457
0.389457
0.389457
0.389457
0.389457
0.389457
0.389457
0.389457
SCALARS Coverage8 float 1
LOOKUP_TABLE default
0.389457
0.389457
0.389457
0.389457
0.389457
0.389457
0.389457
0.389457
0.389457
0.389457
0.389457
SCALARS Coverage9 float 1
LOOKUP_TABLE default
0.0955271
0.0955271
0.0955271
0.0955271
0.0955271
0.0955271
0.0955271
0.0955271
0.0955271
0.0955271
0.0955271
SCALARS Coverage10 float 1
LOOKUP_TABLE default
0.515016
0.515016
0.515016
0.515016
0.515016
0.515016
0.515016
0.515016
0.515016
0.515016
0.515016
SCALARS Coverage11 float 1
LOOKUP_TABLE default
0.226953
0.226953
0.226953
0.226953
0.226953
0.226953
0.226953
0.226953
0.226953
0.226953
0.226953
