# vtk DataFile Version 2.0
2D Surface
ASCII
DATASET UNSTRUCTURED_GRID
POINTS 11 float
0 0.952106 0. 
1 0.952106 0. 
2 0.952106 0. 
3 0.952106 0. 
4 0.952106 0. 
5 0.952106 0. 
6 0.952106 0. 
7 0.952106 0. 
8 0.952106 0. 
9 0.952106 0. 
10 0.952106 0. 
CELLS 10 30
2 0 1 
2 1 2 
2 2 3 
2 3 4 
2 4 5 
2 5 6 
2 6 7 
2 7 8 
2 8 9 
2 9 10 
CELL_TYPES 10
3
3
3
3
3
3
3
3
3
3
POINT_DATA 11
SCALARS Velocities float 1
LOOKUP_TABLE default
0.139115
0.139115
0.139115
0.139115
0.139115
0.139115
0.139115
0.139115
0.139115
0.139115
0.139115
SCALARS Coverage0 float 1
LOOKUP_TABLE default
0.5386
0.5386
0.5386
0.5386
0.5386
0.5386
0.5386
0.5386
0.5386
0.5386
0.5386
SCALARS Coverage1 float 1
LOOKUP_TABLE default
0.26254
0.26254
0.26254
0.26254
0.26254
0.26254
0.26254
0.26254
0.26254
0.26254
0.26254
SCALARS Coverage2 float 1
LOOKUP_TABLE default
0.264473
0.264473
0.264473
0.264473
0.264473
0.264473
0.264473
0.264473
0.264473
0.264473
0.264473
SCALARS Coverage3 float 1
LOOKUP_TABLE default
0.389865
0.389865
0.389865
0.389865
0.389865
0.389865
0.389865
0.389865
0.389865
0.389865
0.389865
SCALARS Coverage4 float 1
LOOKUP_TABLE default
0.345662
0.345662
0.345662
0.345662
0.345662
0.345662
0.345662
0.345662
0.345662
0.345662
0.345662
SCALARS Coverage5 float 1
LOOKUP_TABLE default
0.321281
0.321281
0.321281
0.321281
0.321281
0.321281
0.321281
0.321281
0.321281
0.321281
0.321281
SCALARS Coverage6 float 1
LOOKUP_TABLE default
0.384778
0.384778
0.384778
0.384778
0.384778
0.384778
0.384778
0.384778
0.384778
0.384778
0.384778
SCALARS Coverage7 float 1
LOOKUP_TABLE default
0.649799
0.649799
0.649799
0.649799
0.649799
0.649799
0.649799
0.649799
0.649799
0.649799
0.649799
SCALARS Coverage8 float 1
LOOKUP_TABLE default
0.928466
0.928466
0.928466
0.928466
0.928466
0.928466
0.928466
0.928466
0.928466
0.928466
0.928466
SCALARS Coverage9 float 1
LOOKUP_TABLE default
0.00193321
0.00193321
0.00193321
0.00193321
0.00193321
0.00193321
0.00193321
0.00193321
0.00193321
0.00193321
0.00193321
SCALARS Coverage10 float 1
LOOKUP_TABLE default
0.069601
0.069601
0.069601
0.069601
0.069601
0.069601
0.069601
0.069601
0.069601
0.069601
0.069601
SCALARS Coverage11 float 1
LOOKUP_TABLE default
0
0
0
0
0
0
0
0
0
0
0
