# vtk DataFile Version 2.0
2D Surface
ASCII
DATASET UNSTRUCTURED_GRID
POINTS 11 float
0 0.887437 0. 
1 0.887437 0. 
2 0.887437 0. 
3 0.887437 0. 
4 0.887437 0. 
5 0.887437 0. 
6 0.887437 0. 
7 0.887437 0. 
8 0.887437 0. 
9 0.887437 0. 
10 0.887437 0. 
CELLS 10 30
2 0 1 
2 1 2 
2 2 3 
2 3 4 
2 4 5 
2 5 6 
2 6 7 
2 7 8 
2 8 9 
2 9 10 
CELL_TYPES 10
3
3
3
3
3
3
3
3
3
3
POINT_DATA 11
SCALARS Velocities float 1
LOOKUP_TABLE default
0.186267
0.186267
0.186267
0.186267
0.186267
0.186267
0.186267
0.186267
0.186267
0.186267
0.186267
SCALARS Coverage0 float 1
LOOKUP_TABLE default
0.389249
0.389249
0.389249
0.389249
0.389249
0.389249
0.389249
0.389249
0.389249
0.389249
0.389249
SCALARS Coverage1 float 1
LOOKUP_TABLE default
0.142882
0.142882
0.142882
0.142882
0.142882
0.142882
0.142882
0.142882
0.142882
0.142882
0.142882
SCALARS Coverage2 float 1
LOOKUP_TABLE default
0.144816
0.144816
0.144816
0.144816
0.144816
0.144816
0.144816
0.144816
0.144816
0.144816
0.144816
SCALARS Coverage3 float 1
LOOKUP_TABLE default
0.539217
0.539217
0.539217
0.539217
0.539217
0.539217
0.539217
0.539217
0.539217
0.539217
0.539217
SCALARS Coverage4 float 1
LOOKUP_TABLE default
0.315967
0.315967
0.315967
0.315967
0.315967
0.315967
0.315967
0.315967
0.315967
0.315967
0.315967
SCALARS Coverage5 float 1
LOOKUP_TABLE default
0.430178
0.430178
0.430178
0.430178
0.430178
0.430178
0.430178
0.430178
0.430178
0.430178
0.430178
SCALARS Coverage6 float 1
LOOKUP_TABLE default
0.384778
0.384778
0.384778
0.384778
0.384778
0.384778
0.384778
0.384778
0.384778
0.384778
0.384778
SCALARS Coverage7 float 1
LOOKUP_TABLE default
0.649799
0.649799
0.649799
0.649799
0.649799
0.649799
0.649799
0.649799
0.649799
0.649799
0.649799
SCALARS Coverage8 float 1
LOOKUP_TABLE default
0.928466
0.928466
0.928466
0.928466
0.928466
0.928466
0.928466
0.928466
0.928466
0.928466
0.928466
SCALARS Coverage9 float 1
LOOKUP_TABLE default
0.00193321
0.00193321
0.00193321
0.00193321
0.00193321
0.00193321
0.00193321
0.00193321
0.00193321
0.00193321
0.00193321
SCALARS Coverage10 float 1
LOOKUP_TABLE default
0.069601
0.069601
0.069601
0.069601
0.069601
0.069601
0.069601
0.069601
0.069601
0.069601
0.069601
SCALARS Coverage11 float 1
LOOKUP_TABLE default
0
0
0
0
0
0
0
0
0
0
0
