# vtk DataFile Version 2.0
2D Surface
ASCII
DATASET UNSTRUCTURED_GRID
POINTS 11 float
0 0.133561 0. 
1 0.133561 0. 
2 0.133561 0. 
3 0.133561 0. 
4 0.133561 0. 
5 0.133561 0. 
6 0.133561 0. 
7 0.133561 0. 
8 0.133561 0. 
9 0.133561 0. 
10 0.133561 0. 
CELLS 10 30
2 0 1 
2 1 2 
2 2 3 
2 3 4 
2 4 5 
2 5 6 
2 6 7 
2 7 8 
2 8 9 
2 9 10 
CELL_TYPES 10
3
3
3
3
3
3
3
3
3
3
POINT_DATA 11
SCALARS Velocities float 1
LOOKUP_TABLE default
0.259846
0.259846
0.259846
0.259846
0.259846
0.259846
0.259846
0.259846
0.259846
0.259846
0.259846
SCALARS Coverage0 float 1
LOOKUP_TABLE default
0.128676
0.128676
0.128676
0.128676
0.128676
0.128676
0.128676
0.128676
0.128676
0.128676
0.128676
SCALARS Coverage1 float 1
LOOKUP_TABLE default
0.0275455
0.0275455
0.0275455
0.0275455
0.0275455
0.0275455
0.0275455
0.0275455
0.0275455
0.0275455
0.0275455
SCALARS Coverage2 float 1
LOOKUP_TABLE default
0.0299243
0.0299243
0.0299243
0.0299243
0.0299243
0.0299243
0.0299243
0.0299243
0.0299243
0.0299243
0.0299243
SCALARS Coverage3 float 1
LOOKUP_TABLE default
0.780561
0.780561
0.780561
0.780561
0.780561
0.780561
0.780561
0.780561
0.780561
0.780561
0.780561
SCALARS Coverage4 float 1
LOOKUP_TABLE default
0.189514
0.189514
0.189514
0.189514
0.189514
0.189514
0.189514
0.189514
0.189514
0.189514
0.189514
SCALARS Coverage5 float 1
LOOKUP_TABLE default
0.600106
0.600106
0.600106
0.600106
0.600106
0.600106
0.600106
0.600106
0.600106
0.600106
0.600106
SCALARS Coverage6 float 1
LOOKUP_TABLE default
0.719124
0.719124
0.719124
0.719124
0.719124
0.719124
0.719124
0.719124
0.719124
0.719124
0.719124
SCALARS Coverage7 float 1
LOOKUP_TABLE default
0.909238
0.909238
0.909238
0.909238
0.909238
0.909238
0.909238
0.909238
0.909238
0.909238
0.909238
SCALARS Coverage8 float 1
LOOKUP_TABLE default
0.909238
0.909238
0.909238
0.909238
0.909238
0.909238
0.909238
0.909238
0.909238
0.909238
0.909238
SCALARS Coverage9 float 1
LOOKUP_TABLE default
0.00237883
0.00237883
0.00237883
0.00237883
0.00237883
0.00237883
0.00237883
0.00237883
0.00237883
0.00237883
0.00237883
SCALARS Coverage10 float 1
LOOKUP_TABLE default
0.0883837
0.0883837
0.0883837
0.0883837
0.0883837
0.0883837
0.0883837
0.0883837
0.0883837
0.0883837
0.0883837
SCALARS Coverage11 float 1
LOOKUP_TABLE default
0
0
0
0
0
0
0
0
0
0
0
