# vtk DataFile Version 2.0
2D Surface
ASCII
DATASET UNSTRUCTURED_GRID
POINTS 11 float
0 0.502284 0. 
1 0.502284 0. 
2 0.502284 0. 
3 0.502284 0. 
4 0.502284 0. 
5 0.502284 0. 
6 0.502284 0. 
7 0.502284 0. 
8 0.502284 0. 
9 0.502284 0. 
10 0.502284 0. 
CELLS 10 30
2 0 1 
2 1 2 
2 2 3 
2 3 4 
2 4 5 
2 5 6 
2 6 7 
2 7 8 
2 8 9 
2 9 10 
CELL_TYPES 10
3
3
3
3
3
3
3
3
3
3
POINT_DATA 11
SCALARS Velocities float 1
LOOKUP_TABLE default
0.230341
0.230341
0.230341
0.230341
0.230341
0.230341
0.230341
0.230341
0.230341
0.230341
0.230341
SCALARS Coverage0 float 1
LOOKUP_TABLE default
0.245252
0.245252
0.245252
0.245252
0.245252
0.245252
0.245252
0.245252
0.245252
0.245252
0.245252
SCALARS Coverage1 float 1
LOOKUP_TABLE default
0.0650006
0.0650006
0.0650006
0.0650006
0.0650006
0.0650006
0.0650006
0.0650006
0.0650006
0.0650006
0.0650006
SCALARS Coverage2 float 1
LOOKUP_TABLE default
0.0669467
0.0669467
0.0669467
0.0669467
0.0669467
0.0669467
0.0669467
0.0669467
0.0669467
0.0669467
0.0669467
SCALARS Coverage3 float 1
LOOKUP_TABLE default
0.682725
0.682725
0.682725
0.682725
0.682725
0.682725
0.682725
0.682725
0.682725
0.682725
0.682725
SCALARS Coverage4 float 1
LOOKUP_TABLE default
0.250328
0.250328
0.250328
0.250328
0.250328
0.250328
0.250328
0.250328
0.250328
0.250328
0.250328
SCALARS Coverage5 float 1
LOOKUP_TABLE default
0.531965
0.531965
0.531965
0.531965
0.531965
0.531965
0.531965
0.531965
0.531965
0.531965
0.531965
SCALARS Coverage6 float 1
LOOKUP_TABLE default
0.39229
0.39229
0.39229
0.39229
0.39229
0.39229
0.39229
0.39229
0.39229
0.39229
0.39229
SCALARS Coverage7 float 1
LOOKUP_TABLE default
0.65565
0.65565
0.65565
0.65565
0.65565
0.65565
0.65565
0.65565
0.65565
0.65565
0.65565
SCALARS Coverage8 float 1
LOOKUP_TABLE default
0.927978
0.927978
0.927978
0.927978
0.927978
0.927978
0.927978
0.927978
0.927978
0.927978
0.927978
SCALARS Coverage9 float 1
LOOKUP_TABLE default
0.00194615
0.00194615
0.00194615
0.00194615
0.00194615
0.00194615
0.00194615
0.00194615
0.00194615
0.00194615
0.00194615
SCALARS Coverage10 float 1
LOOKUP_TABLE default
0.0700763
0.0700763
0.0700763
0.0700763
0.0700763
0.0700763
0.0700763
0.0700763
0.0700763
0.0700763
0.0700763
SCALARS Coverage11 float 1
LOOKUP_TABLE default
0
0
0
0
0
0
0
0
0
0
0
