# vtk DataFile Version 2.0
2D Surface
ASCII
DATASET UNSTRUCTURED_GRID
POINTS 11 float
0 1.19105 0. 
1 1.19105 0. 
2 1.19105 0. 
3 1.19105 0. 
4 1.19105 0. 
5 1.19105 0. 
6 1.19105 0. 
7 1.19105 0. 
8 1.19105 0. 
9 1.19105 0. 
10 1.19105 0. 
CELLS 10 30
2 0 1 
2 1 2 
2 2 3 
2 3 4 
2 4 5 
2 5 6 
2 6 7 
2 7 8 
2 8 9 
2 9 10 
CELL_TYPES 10
3
3
3
3
3
3
3
3
3
3
POINT_DATA 11
SCALARS Velocities float 1
LOOKUP_TABLE default
0.200079
0.200079
0.200079
0.200079
0.200079
0.200079
0.200079
0.200079
0.200079
0.200079
0.200079
SCALARS Coverage0 float 1
LOOKUP_TABLE default
0.344658
0.344658
0.344658
0.344658
0.344658
0.344658
0.344658
0.344658
0.344658
0.344658
0.344658
SCALARS Coverage1 float 1
LOOKUP_TABLE default
0.115167
0.115167
0.115167
0.115167
0.115167
0.115167
0.115167
0.115167
0.115167
0.115167
0.115167
SCALARS Coverage2 float 1
LOOKUP_TABLE default
0.1171
0.1171
0.1171
0.1171
0.1171
0.1171
0.1171
0.1171
0.1171
0.1171
0.1171
SCALARS Coverage3 float 1
LOOKUP_TABLE default
0.583821
0.583821
0.583821
0.583821
0.583821
0.583821
0.583821
0.583821
0.583821
0.583821
0.583821
SCALARS Coverage4 float 1
LOOKUP_TABLE default
0.299079
0.299079
0.299079
0.299079
0.299079
0.299079
0.299079
0.299079
0.299079
0.299079
0.299079
SCALARS Coverage5 float 1
LOOKUP_TABLE default
0.462076
0.462076
0.462076
0.462076
0.462076
0.462076
0.462076
0.462076
0.462076
0.462076
0.462076
SCALARS Coverage6 float 1
LOOKUP_TABLE default
0.384582
0.384582
0.384582
0.384582
0.384582
0.384582
0.384582
0.384582
0.384582
0.384582
0.384582
SCALARS Coverage7 float 1
LOOKUP_TABLE default
0.649647
0.649647
0.649647
0.649647
0.649647
0.649647
0.649647
0.649647
0.649647
0.649647
0.649647
SCALARS Coverage8 float 1
LOOKUP_TABLE default
0.928479
0.928479
0.928479
0.928479
0.928479
0.928479
0.928479
0.928479
0.928479
0.928479
0.928479
SCALARS Coverage9 float 1
LOOKUP_TABLE default
0.00193285
0.00193285
0.00193285
0.00193285
0.00193285
0.00193285
0.00193285
0.00193285
0.00193285
0.00193285
0.00193285
SCALARS Coverage10 float 1
LOOKUP_TABLE default
0.0695882
0.0695882
0.0695882
0.0695882
0.0695882
0.0695882
0.0695882
0.0695882
0.0695882
0.0695882
0.0695882
SCALARS Coverage11 float 1
LOOKUP_TABLE default
0
0
0
0
0
0
0
0
0
0
0
