# vtk DataFile Version 2.0
2D Surface
ASCII
DATASET UNSTRUCTURED_GRID
POINTS 11 float
0 0.825138 0. 
1 0.825138 0. 
2 0.825138 0. 
3 0.825138 0. 
4 0.825138 0. 
5 0.825138 0. 
6 0.825138 0. 
7 0.825138 0. 
8 0.825138 0. 
9 0.825138 0. 
10 0.825138 0. 
CELLS 10 30
2 0 1 
2 1 2 
2 2 3 
2 3 4 
2 4 5 
2 5 6 
2 6 7 
2 7 8 
2 8 9 
2 9 10 
CELL_TYPES 10
3
3
3
3
3
3
3
3
3
3
POINT_DATA 11
SCALARS Velocities float 1
LOOKUP_TABLE default
0.230453
0.230453
0.230453
0.230453
0.230453
0.230453
0.230453
0.230453
0.230453
0.230453
0.230453
SCALARS Coverage0 float 1
LOOKUP_TABLE default
0.24537
0.24537
0.24537
0.24537
0.24537
0.24537
0.24537
0.24537
0.24537
0.24537
0.24537
SCALARS Coverage1 float 1
LOOKUP_TABLE default
0.0648802
0.0648802
0.0648802
0.0648802
0.0648802
0.0648802
0.0648802
0.0648802
0.0648802
0.0648802
0.0648802
SCALARS Coverage2 float 1
LOOKUP_TABLE default
0.0668134
0.0668134
0.0668134
0.0668134
0.0668134
0.0668134
0.0668134
0.0668134
0.0668134
0.0668134
0.0668134
SCALARS Coverage3 float 1
LOOKUP_TABLE default
0.683096
0.683096
0.683096
0.683096
0.683096
0.683096
0.683096
0.683096
0.683096
0.683096
0.683096
SCALARS Coverage4 float 1
LOOKUP_TABLE default
0.250091
0.250091
0.250091
0.250091
0.250091
0.250091
0.250091
0.250091
0.250091
0.250091
0.250091
SCALARS Coverage5 float 1
LOOKUP_TABLE default
0.532224
0.532224
0.532224
0.532224
0.532224
0.532224
0.532224
0.532224
0.532224
0.532224
0.532224
SCALARS Coverage6 float 1
LOOKUP_TABLE default
0.384778
0.384778
0.384778
0.384778
0.384778
0.384778
0.384778
0.384778
0.384778
0.384778
0.384778
SCALARS Coverage7 float 1
LOOKUP_TABLE default
0.649799
0.649799
0.649799
0.649799
0.649799
0.649799
0.649799
0.649799
0.649799
0.649799
0.649799
SCALARS Coverage8 float 1
LOOKUP_TABLE default
0.928466
0.928466
0.928466
0.928466
0.928466
0.928466
0.928466
0.928466
0.928466
0.928466
0.928466
SCALARS Coverage9 float 1
LOOKUP_TABLE default
0.00193321
0.00193321
0.00193321
0.00193321
0.00193321
0.00193321
0.00193321
0.00193321
0.00193321
0.00193321
0.00193321
SCALARS Coverage10 float 1
LOOKUP_TABLE default
0.069601
0.069601
0.069601
0.069601
0.069601
0.069601
0.069601
0.069601
0.069601
0.069601
0.069601
SCALARS Coverage11 float 1
LOOKUP_TABLE default
0
0
0
0
0
0
0
0
0
0
0
