# vtk DataFile Version 2.0
2D Surface
ASCII
DATASET UNSTRUCTURED_GRID
POINTS 11 float
0 0.655023 0. 
1 0.655023 0. 
2 0.655023 0. 
3 0.655023 0. 
4 0.655023 0. 
5 0.655023 0. 
6 0.655023 0. 
7 0.655023 0. 
8 0.655023 0. 
9 0.655023 0. 
10 0.655023 0. 
CELLS 10 30
2 0 1 
2 1 2 
2 2 3 
2 3 4 
2 4 5 
2 5 6 
2 6 7 
2 7 8 
2 8 9 
2 9 10 
CELL_TYPES 10
3
3
3
3
3
3
3
3
3
3
POINT_DATA 11
SCALARS Velocities float 1
LOOKUP_TABLE default
0.119725
0.119725
0.119725
0.119725
0.119725
0.119725
0.119725
0.119725
0.119725
0.119725
0.119725
SCALARS Coverage0 float 1
LOOKUP_TABLE default
0.597999
0.597999
0.597999
0.597999
0.597999
0.597999
0.597999
0.597999
0.597999
0.597999
0.597999
SCALARS Coverage1 float 1
LOOKUP_TABLE default
0.324204
0.324204
0.324204
0.324204
0.324204
0.324204
0.324204
0.324204
0.324204
0.324204
0.324204
SCALARS Coverage2 float 1
LOOKUP_TABLE default
0.32615
0.32615
0.32615
0.32615
0.32615
0.32615
0.32615
0.32615
0.32615
0.32615
0.32615
SCALARS Coverage3 float 1
LOOKUP_TABLE default
0.329978
0.329978
0.329978
0.329978
0.329978
0.329978
0.329978
0.329978
0.329978
0.329978
0.329978
SCALARS Coverage4 float 1
LOOKUP_TABLE default
0.343871
0.343871
0.343871
0.343871
0.343871
0.343871
0.343871
0.343871
0.343871
0.343871
0.343871
SCALARS Coverage5 float 1
LOOKUP_TABLE default
0.276502
0.276502
0.276502
0.276502
0.276502
0.276502
0.276502
0.276502
0.276502
0.276502
0.276502
SCALARS Coverage6 float 1
LOOKUP_TABLE default
0.39229
0.39229
0.39229
0.39229
0.39229
0.39229
0.39229
0.39229
0.39229
0.39229
0.39229
SCALARS Coverage7 float 1
LOOKUP_TABLE default
0.65565
0.65565
0.65565
0.65565
0.65565
0.65565
0.65565
0.65565
0.65565
0.65565
0.65565
SCALARS Coverage8 float 1
LOOKUP_TABLE default
0.927978
0.927978
0.927978
0.927978
0.927978
0.927978
0.927978
0.927978
0.927978
0.927978
0.927978
SCALARS Coverage9 float 1
LOOKUP_TABLE default
0.00194615
0.00194615
0.00194615
0.00194615
0.00194615
0.00194615
0.00194615
0.00194615
0.00194615
0.00194615
0.00194615
SCALARS Coverage10 float 1
LOOKUP_TABLE default
0.0700763
0.0700763
0.0700763
0.0700763
0.0700763
0.0700763
0.0700763
0.0700763
0.0700763
0.0700763
0.0700763
SCALARS Coverage11 float 1
LOOKUP_TABLE default
0
0
0
0
0
0
0
0
0
0
0
