# vtk DataFile Version 3.0
vtk output
ASCII
DATASET UNSTRUCTURED_GRID
POINTS 8 float
-0.124557 -0.124557 -0.156988 
-0.124557 -0.124557 -0.079 
-0.124557 0.124557 -0.156988 
-0.124557 0.124557 -0.079 
0.124557 -0.124557 -0.156988 
0.124557 -0.124557 -0.079 
0.124557 0.124557 -0.156988 
0.124557 0.124557 -0.079 
CELLS 5 25
4 0 1 2 4 
4 5 1 7 4 
4 3 7 1 2 
4 6 4 2 7 
4 4 1 7 2 
CELL_TYPES 5
10
10
10
10
10
CELL_DATA 5
SCALARS Material int 1
LOOKUP_TABLE default
1
1
1
1
1
