# vtk DataFile Version 2.0
3D Surface
ASCII
DATASET UNSTRUCTURED_GRID
POINTS 14397 float
-1.2e-05 -1.225e-05 -8.4108e-06 
-1.2e-05 -1.2e-05 -8.41264e-06 
-1.225e-05 -1.225e-05 -8.40868e-06 
-1.225e-05 -1.2e-05 -8.41681e-06 
-1.175e-05 -1.225e-05 -8.41947e-06 
-1.175e-05 -1.2e-05 -8.41294e-06 
-1.15e-05 -1.225e-05 -8.41184e-06 
-1.15e-05 -1.2e-05 -8.41053e-06 
-1.125e-05 -1.225e-05 -8.41436e-06 
-1.125e-05 -1.2e-05 -8.42159e-06 
-1.1e-05 -1.225e-05 -8.41935e-06 
-1.1e-05 -1.2e-05 -8.41871e-06 
-1.075e-05 -1.225e-05 -8.4169e-06 
-1.075e-05 -1.2e-05 -8.41827e-06 
-1.05e-05 -1.225e-05 -8.41282e-06 
-1.05e-05 -1.2e-05 -8.42067e-06 
-1.025e-05 -1.225e-05 -8.41555e-06 
-1.025e-05 -1.2e-05 -8.41788e-06 
-1e-05 -1.225e-05 -8.41941e-06 
-1e-05 -1.2e-05 -8.41353e-06 
-9.75e-06 -1.225e-05 -8.41433e-06 
-9.75e-06 -1.2e-05 -8.4178e-06 
-9.5e-06 -1.225e-05 -8.41573e-06 
-9.5e-06 -1.2e-05 -8.41612e-06 
-9.25e-06 -1.225e-05 -8.41378e-06 
-9.25e-06 -1.2e-05 -8.4134e-06 
-9e-06 -1.225e-05 -8.41499e-06 
-9e-06 -1.2e-05 -8.41762e-06 
-8.75e-06 -1.225e-05 -8.41327e-06 
-8.75e-06 -1.2e-05 -8.41895e-06 
-8.5e-06 -1.225e-05 -8.42017e-06 
-8.5e-06 -1.2e-05 -8.42229e-06 
-8.25e-06 -1.225e-05 -8.41573e-06 
-8.25e-06 -1.2e-05 -8.41611e-06 
-8e-06 -1.225e-05 -8.41854e-06 
-8e-06 -1.2e-05 -8.41749e-06 
-7.75e-06 -1.225e-05 -8.41875e-06 
-7.75e-06 -1.2e-05 -8.41717e-06 
-7.5e-06 -1.225e-05 -8.41104e-06 
-7.5e-06 -1.2e-05 -8.41716e-06 
-7.25e-06 -1.225e-05 -8.41809e-06 
-7.25e-06 -1.2e-05 -8.41401e-06 
-7e-06 -1.225e-05 -8.4197e-06 
-7e-06 -1.2e-05 -8.41622e-06 
-6.75e-06 -1.225e-05 -8.42003e-06 
-6.75e-06 -1.2e-05 -8.41534e-06 
-6.5e-06 -1.225e-05 -8.41227e-06 
-6.5e-06 -1.2e-05 -8.41247e-06 
-6.25e-06 -1.225e-05 -8.41093e-06 
-6.25e-06 -1.2e-05 -8.40836e-06 
-6e-06 -1.225e-05 -8.41407e-06 
-6e-06 -1.2e-05 -8.41745e-06 
-5.75e-06 -1.225e-05 -8.41404e-06 
-5.75e-06 -1.2e-05 -8.42093e-06 
-5.5e-06 -1.225e-05 -8.41407e-06 
-5.5e-06 -1.2e-05 -8.41966e-06 
-5.25e-06 -1.225e-05 -8.42155e-06 
-5.25e-06 -1.2e-05 -8.4244e-06 
-5e-06 -1.225e-05 -8.41803e-06 
-5e-06 -1.2e-05 -8.41839e-06 
-4.75e-06 -1.225e-05 -8.4207e-06 
-4.75e-06 -1.2e-05 -8.41398e-06 
-4.5e-06 -1.225e-05 -8.41972e-06 
-4.5e-06 -1.2e-05 -8.41931e-06 
-4.25e-06 -1.225e-05 -8.41906e-06 
-4.25e-06 -1.2e-05 -8.42164e-06 
-4e-06 -1.225e-05 -8.41582e-06 
-4e-06 -1.2e-05 -8.41807e-06 
-3.75e-06 -1.225e-05 -8.42195e-06 
-3.75e-06 -1.2e-05 -8.41117e-06 
-3.5e-06 -1.225e-05 -8.41388e-06 
-3.5e-06 -1.2e-05 -8.41903e-06 
-3.25e-06 -1.225e-05 -8.41227e-06 
-3.25e-06 -1.2e-05 -8.42348e-06 
-3e-06 -1.225e-05 -8.41015e-06 
-3e-06 -1.2e-05 -8.41755e-06 
-2.75e-06 -1.225e-05 -8.41652e-06 
-2.75e-06 -1.2e-05 -8.42004e-06 
-2.5e-06 -1.225e-05 -8.41564e-06 
-2.5e-06 -1.2e-05 -8.41314e-06 
-2.25e-06 -1.225e-05 -8.41912e-06 
-2.25e-06 -1.2e-05 -8.42299e-06 
-2e-06 -1.225e-05 -8.4118e-06 
-2e-06 -1.2e-05 -8.42302e-06 
-1.75e-06 -1.225e-05 -8.41821e-06 
-1.75e-06 -1.2e-05 -8.42111e-06 
-1.5e-06 -1.225e-05 -8.41547e-06 
-1.5e-06 -1.2e-05 -8.41753e-06 
-1.25e-06 -1.225e-05 -8.41193e-06 
-1.25e-06 -1.2e-05 -8.4134e-06 
-1e-06 -1.225e-05 -8.41733e-06 
-1e-06 -1.2e-05 -8.41704e-06 
-7.5e-07 -1.225e-05 -8.42103e-06 
-7.5e-07 -1.2e-05 -8.41695e-06 
-5e-07 -1.225e-05 -8.42143e-06 
-5e-07 -1.2e-05 -8.42055e-06 
-2.5e-07 -1.225e-05 -8.42166e-06 
-2.5e-07 -1.2e-05 -8.42024e-06 
0 -1.225e-05 -8.41944e-06 
0 -1.2e-05 -8.40919e-06 
2.5e-07 -1.225e-05 -8.42367e-06 
2.5e-07 -1.2e-05 -8.41702e-06 
5e-07 -1.225e-05 -8.41795e-06 
5e-07 -1.2e-05 -8.41771e-06 
7.5e-07 -1.225e-05 -8.41542e-06 
7.5e-07 -1.2e-05 -8.41391e-06 
1e-06 -1.225e-05 -8.41448e-06 
1e-06 -1.2e-05 -8.41991e-06 
1.25e-06 -1.225e-05 -8.41377e-06 
1.25e-06 -1.2e-05 -8.41778e-06 
1.5e-06 -1.225e-05 -8.41521e-06 
1.5e-06 -1.2e-05 -8.41935e-06 
1.75e-06 -1.225e-05 -8.41539e-06 
1.75e-06 -1.2e-05 -8.42234e-06 
2e-06 -1.225e-05 -8.41564e-06 
2e-06 -1.2e-05 -8.41805e-06 
2.25e-06 -1.225e-05 -8.41647e-06 
2.25e-06 -1.2e-05 -8.4191e-06 
2.5e-06 -1.225e-05 -8.41831e-06 
2.5e-06 -1.2e-05 -8.41849e-06 
2.75e-06 -1.225e-05 -8.41724e-06 
2.75e-06 -1.2e-05 -8.41337e-06 
3e-06 -1.225e-05 -8.41389e-06 
3e-06 -1.2e-05 -8.41339e-06 
3.25e-06 -1.225e-05 -8.41203e-06 
3.25e-06 -1.2e-05 -8.41645e-06 
3.5e-06 -1.225e-05 -8.41285e-06 
3.5e-06 -1.2e-05 -8.41875e-06 
3.75e-06 -1.225e-05 -8.41655e-06 
3.75e-06 -1.2e-05 -8.41843e-06 
4e-06 -1.225e-05 -8.41999e-06 
4e-06 -1.2e-05 -8.41318e-06 
4.25e-06 -1.225e-05 -8.42242e-06 
4.25e-06 -1.2e-05 -8.41954e-06 
4.5e-06 -1.225e-05 -8.41777e-06 
4.5e-06 -1.2e-05 -8.41595e-06 
4.75e-06 -1.225e-05 -8.4135e-06 
4.75e-06 -1.2e-05 -8.41215e-06 
5e-06 -1.225e-05 -8.42117e-06 
5e-06 -1.2e-05 -8.41642e-06 
5.25e-06 -1.225e-05 -8.41641e-06 
5.25e-06 -1.2e-05 -8.41567e-06 
5.5e-06 -1.225e-05 -8.41962e-06 
5.5e-06 -1.2e-05 -8.41797e-06 
5.75e-06 -1.225e-05 -8.41371e-06 
5.75e-06 -1.2e-05 -8.41601e-06 
6e-06 -1.225e-05 -8.41268e-06 
6e-06 -1.2e-05 -8.41674e-06 
6.25e-06 -1.225e-05 -8.41774e-06 
6.25e-06 -1.2e-05 -8.41379e-06 
6.5e-06 -1.225e-05 -8.42158e-06 
6.5e-06 -1.2e-05 -8.42089e-06 
6.75e-06 -1.225e-05 -8.41568e-06 
6.75e-06 -1.2e-05 -8.42522e-06 
7e-06 -1.225e-05 -8.41864e-06 
7e-06 -1.2e-05 -8.41904e-06 
7.25e-06 -1.225e-05 -8.41845e-06 
7.25e-06 -1.2e-05 -8.41307e-06 
7.5e-06 -1.225e-05 -8.41398e-06 
7.5e-06 -1.2e-05 -8.41335e-06 
7.75e-06 -1.225e-05 -8.41478e-06 
7.75e-06 -1.2e-05 -8.41013e-06 
8e-06 -1.225e-05 -8.41481e-06 
8e-06 -1.2e-05 -8.41585e-06 
8.25e-06 -1.225e-05 -8.41848e-06 
8.25e-06 -1.2e-05 -8.4223e-06 
8.5e-06 -1.225e-05 -8.4103e-06 
8.5e-06 -1.2e-05 -8.41405e-06 
8.75e-06 -1.225e-05 -8.41109e-06 
8.75e-06 -1.2e-05 -8.41255e-06 
9e-06 -1.225e-05 -8.41285e-06 
9e-06 -1.2e-05 -8.41684e-06 
9.25e-06 -1.225e-05 -8.41816e-06 
9.25e-06 -1.2e-05 -8.4193e-06 
9.5e-06 -1.225e-05 -8.41995e-06 
9.5e-06 -1.2e-05 -8.41126e-06 
9.75e-06 -1.225e-05 -8.42298e-06 
9.75e-06 -1.2e-05 -8.41652e-06 
1e-05 -1.225e-05 -8.41324e-06 
1e-05 -1.2e-05 -8.41674e-06 
1.025e-05 -1.225e-05 -8.41434e-06 
1.025e-05 -1.2e-05 -8.41576e-06 
1.05e-05 -1.225e-05 -8.41643e-06 
1.05e-05 -1.2e-05 -8.41467e-06 
1.075e-05 -1.225e-05 -8.4144e-06 
1.075e-05 -1.2e-05 -8.41348e-06 
1.1e-05 -1.225e-05 -8.4128e-06 
1.1e-05 -1.2e-05 -8.4146e-06 
1.125e-05 -1.225e-05 -8.41275e-06 
1.125e-05 -1.2e-05 -8.41513e-06 
1.15e-05 -1.225e-05 -8.42085e-06 
1.15e-05 -1.2e-05 -8.42188e-06 
1.175e-05 -1.225e-05 -8.42092e-06 
1.175e-05 -1.2e-05 -8.42009e-06 
1.2e-05 -1.225e-05 -8.41241e-06 
1.2e-05 -1.2e-05 -8.41076e-06 
1.225e-05 -1.225e-05 -8.40868e-06 
1.225e-05 -1.2e-05 -8.41681e-06 
-1.2e-05 -1.175e-05 -8.41207e-06 
-1.225e-05 -1.175e-05 -8.42153e-06 
-1.175e-05 -1.175e-05 -8.41803e-06 
-1.15e-05 -1.175e-05 -8.41652e-06 
-1.125e-05 -1.175e-05 -8.42019e-06 
-1.1e-05 -1.175e-05 -8.42197e-06 
-1.075e-05 -1.175e-05 -8.41509e-06 
-1.05e-05 -1.175e-05 -8.41451e-06 
-1.025e-05 -1.175e-05 -8.41659e-06 
-1e-05 -1.175e-05 -8.41331e-06 
-9.75e-06 -1.175e-05 -8.41334e-06 
-9.5e-06 -1.175e-05 -8.41867e-06 
-9.25e-06 -1.175e-05 -8.41793e-06 
-9e-06 -1.175e-05 -8.42018e-06 
-8.75e-06 -1.175e-05 -8.41497e-06 
-8.5e-06 -1.175e-05 -8.41339e-06 
-8.25e-06 -1.175e-05 -8.41135e-06 
-8e-06 -1.175e-05 -8.4126e-06 
-7.75e-06 -1.175e-05 -8.41779e-06 
-7.5e-06 -1.175e-05 -8.4177e-06 
-7.25e-06 -1.175e-05 -8.4154e-06 
-7e-06 -1.175e-05 -8.41681e-06 
-6.75e-06 -1.175e-05 -8.41358e-06 
-6.5e-06 -1.175e-05 -8.41483e-06 
-6.25e-06 -1.175e-05 -8.42265e-06 
-6e-06 -1.175e-05 -8.41812e-06 
-5.75e-06 -1.175e-05 -8.41827e-06 
-5.5e-06 -1.175e-05 -8.41521e-06 
-5.25e-06 -1.175e-05 -8.41707e-06 
-5e-06 -1.175e-05 -8.41426e-06 
-4.75e-06 -1.175e-05 -8.41655e-06 
-4.5e-06 -1.175e-05 -8.41398e-06 
-4.25e-06 -1.175e-05 -8.41311e-06 
-4e-06 -1.175e-05 -8.41897e-06 
-3.75e-06 -1.175e-05 -8.41581e-06 
-3.5e-06 -1.175e-05 -8.42344e-06 
-3.25e-06 -1.175e-05 -8.42309e-06 
-3e-06 -1.175e-05 -8.41223e-06 
-2.75e-06 -1.175e-05 -8.41437e-06 
-2.5e-06 -1.175e-05 -8.41644e-06 
-2.25e-06 -1.175e-05 -8.41962e-06 
-2e-06 -1.175e-05 -8.42797e-06 
-1.75e-06 -1.175e-05 -8.42046e-06 
-1.5e-06 -1.175e-05 -8.41641e-06 
-1.25e-06 -1.175e-05 -8.41731e-06 
-1e-06 -1.175e-05 -8.41244e-06 
-7.5e-07 -1.175e-05 -8.41177e-06 
-5e-07 -1.175e-05 -8.41354e-06 
-2.5e-07 -1.175e-05 -8.42079e-06 
0 -1.175e-05 -8.41659e-06 
2.5e-07 -1.175e-05 -8.41835e-06 
5e-07 -1.175e-05 -8.41944e-06 
7.5e-07 -1.175e-05 -8.41736e-06 
1e-06 -1.175e-05 -8.42452e-06 
1.25e-06 -1.175e-05 -8.41376e-06 
1.5e-06 -1.175e-05 -8.41381e-06 
1.75e-06 -1.175e-05 -8.41045e-06 
2e-06 -1.175e-05 -8.41638e-06 
2.25e-06 -1.175e-05 -8.41779e-06 
2.5e-06 -1.175e-05 -8.4197e-06 
2.75e-06 -1.175e-05 -8.4177e-06 
3e-06 -1.175e-05 -8.4124e-06 
3.25e-06 -1.175e-05 -8.42084e-06 
3.5e-06 -1.175e-05 -8.41932e-06 
3.75e-06 -1.175e-05 -8.41735e-06 
4e-06 -1.175e-05 -8.41846e-06 
4.25e-06 -1.175e-05 -8.4148e-06 
4.5e-06 -1.175e-05 -8.41508e-06 
4.75e-06 -1.175e-05 -8.42631e-06 
5e-06 -1.175e-05 -8.41885e-06 
5.25e-06 -1.175e-05 -8.41364e-06 
5.5e-06 -1.175e-05 -8.41094e-06 
5.75e-06 -1.175e-05 -8.41559e-06 
6e-06 -1.175e-05 -8.42166e-06 
6.25e-06 -1.175e-05 -8.42294e-06 
6.5e-06 -1.175e-05 -8.4142e-06 
6.75e-06 -1.175e-05 -8.41533e-06 
7e-06 -1.175e-05 -8.4172e-06 
7.25e-06 -1.175e-05 -8.41677e-06 
7.5e-06 -1.175e-05 -8.42087e-06 
7.75e-06 -1.175e-05 -8.41774e-06 
8e-06 -1.175e-05 -8.41754e-06 
8.25e-06 -1.175e-05 -8.4249e-06 
8.5e-06 -1.175e-05 -8.41445e-06 
8.75e-06 -1.175e-05 -8.41726e-06 
9e-06 -1.175e-05 -8.41557e-06 
9.25e-06 -1.175e-05 -8.42428e-06 
9.5e-06 -1.175e-05 -8.41485e-06 
9.75e-06 -1.175e-05 -8.41773e-06 
1e-05 -1.175e-05 -8.41924e-06 
1.025e-05 -1.175e-05 -8.41739e-06 
1.05e-05 -1.175e-05 -8.41711e-06 
1.075e-05 -1.175e-05 -8.41767e-06 
1.1e-05 -1.175e-05 -8.41933e-06 
1.125e-05 -1.175e-05 -8.41649e-06 
1.15e-05 -1.175e-05 -8.41947e-06 
1.175e-05 -1.175e-05 -8.41794e-06 
1.2e-05 -1.175e-05 -8.4178e-06 
1.225e-05 -1.175e-05 -8.42153e-06 
-1.2e-05 -1.15e-05 -8.42552e-06 
-1.225e-05 -1.15e-05 -8.41961e-06 
-1.175e-05 -1.15e-05 -8.41724e-06 
-1.15e-05 -1.15e-05 -8.41325e-06 
[...]
POINT_DATA 14397
SCALARS Velocities float 1
LOOKUP_TABLE default
-3.5799e-06
-3.29891e-06
-3.40628e-06
-3.29057e-06
-3.34479e-06
-3.39307e-06
-3.4608e-06
-3.4037e-06
-3.67144e-06
-3.63843e-06
-3.5034e-06
-3.42767e-06
-3.60703e-06
-3.43889e-06
-3.33556e-06
-3.32396e-06
-3.41527e-06
-3.4338e-06
-3.46805e-06
-3.63477e-06
-3.11675e-06
-3.35491e-06
-3.28488e-06
-3.30668e-06
-3.36301e-06
-3.33885e-06
-3.40838e-06
-3.35769e-06
-3.42123e-06
-3.56339e-06
-3.44984e-06
-3.48092e-06
-3.27703e-06
-3.52355e-06
-3.5533e-06
-3.42088e-06
-3.62793e-06
-3.6178e-06
-3.50074e-06
-3.8005e-06
-3.47219e-06
-3.47016e-06
-3.51329e-06
-3.59158e-06
-3.47027e-06
-3.40464e-06
-3.5273e-06
-3.63941e-06
-3.53188e-06
-3.51703e-06
-3.46223e-06
-3.58072e-06
-3.26334e-06
-3.34002e-06
-3.45321e-06
-3.4438e-06
-3.52777e-06
-3.54214e-06
-3.51967e-06
-3.43375e-06
-3.51745e-06
-3.47093e-06
-3.58843e-06
-3.54286e-06
-3.4262e-06
-3.38531e-06
-3.4191e-06
-3.29064e-06
-3.35193e-06
-3.49949e-06
-3.62326e-06
-3.49403e-06
-3.50511e-06
-3.51613e-06
-3.23017e-06
-3.20613e-06
-3.32504e-06
-3.34102e-06
-3.42e-06
-3.27843e-06
-3.41065e-06
-3.47309e-06
-3.29065e-06
-3.51435e-06
-3.4494e-06
-3.45205e-06
-3.37512e-06
-3.74205e-06
-3.3494e-06
-3.33847e-06
-3.62283e-06
-3.33256e-06
-3.50672e-06
-3.41915e-06
-3.58785e-06
-3.41967e-06
-3.38318e-06
-3.5117e-06
-3.3888e-06
-3.2593e-06
-3.68283e-06
-3.36893e-06
-3.5404e-06
-3.32645e-06
-3.42107e-06
-3.42925e-06
-3.45446e-06
-3.28626e-06
-3.29655e-06
-3.41702e-06
-3.31954e-06
-3.52999e-06
-3.40363e-06
-3.46665e-06
-3.48672e-06
-3.39816e-06
-3.50263e-06
-3.44919e-06
-3.39599e-06
-3.54814e-06
-3.52156e-06
-3.44739e-06
-3.40753e-06
-3.43661e-06
-3.65714e-06
-3.48671e-06
-3.46046e-06
-3.43677e-06
-3.56116e-06
-3.57377e-06
-3.59104e-06
-3.57949e-06
-3.51851e-06
-3.49588e-06
-3.41351e-06
-3.39713e-06
-3.37401e-06
-3.49423e-06
-3.38993e-06
-3.55955e-06
-3.45136e-06
-3.46775e-06
-3.52934e-06
-3.55446e-06
-3.46978e-06
-3.58964e-06
-3.34042e-06
-3.31145e-06
-3.53255e-06
-3.42268e-06
-3.41077e-06
-3.298e-06
-3.54147e-06
-3.41851e-06
-3.30361e-06
-3.23884e-06
-3.65002e-06
-3.35976e-06
-3.45751e-06
-3.28461e-06
-3.49841e-06
-3.47258e-06
-3.56192e-06
-3.55165e-06
-3.53393e-06
-3.30256e-06
-3.50826e-06
-3.58384e-06
-3.63708e-06
-3.32431e-06
-3.67858e-06
-3.47735e-06
-3.39939e-06
-3.39366e-06
-3.4302e-06
-3.48663e-06
-3.44382e-06
-3.35115e-06
-3.20666e-06
-3.4556e-06
-3.56626e-06
-3.4501e-06
-3.50623e-06
-3.4176e-06
-3.44932e-06
-3.36723e-06
-3.38941e-06
-3.34717e-06
-3.42298e-06
-3.20874e-06
-3.60688e-06
-3.34674e-06
-3.30717e-06
-3.42894e-06
-3.35296e-06
-3.24908e-06
-3.40628e-06
-3.29057e-06
-3.45105e-06
-3.34926e-06
-3.5231e-06
-3.3032e-06
-3.29278e-06
-3.39996e-06
-3.31433e-06
-3.39035e-06
-3.43981e-06
-3.37996e-06
-3.54887e-06
-3.43173e-06
-3.49312e-06
-3.40433e-06
-3.50225e-06
-3.43499e-06
-3.6582e-06
-3.53182e-06
-3.5049e-06
-3.66457e-06
-3.24748e-06
-3.14305e-06
-3.44427e-06
-3.59103e-06
-3.64131e-06
-3.41315e-06
-3.37252e-06
-3.61133e-06
-3.46949e-06
-3.26104e-06
-3.47175e-06
-3.23817e-06
-3.2814e-06
-3.39571e-06
-3.58352e-06
-3.28707e-06
-3.40941e-06
-3.40958e-06
-3.48292e-06
-3.33424e-06
-3.31408e-06
-3.53015e-06
-3.30822e-06
-3.46348e-06
-3.39124e-06
-3.37419e-06
-3.53196e-06
-3.34952e-06
-3.41814e-06
-3.43988e-06
-3.55577e-06
-3.29392e-06
-3.13871e-06
-3.21301e-06
-3.27264e-06
-3.32049e-06
-3.26324e-06
-3.27292e-06
-3.29214e-06
-3.48474e-06
-3.45168e-06
-3.58414e-06
-3.54064e-06
-3.34554e-06
-3.52178e-06
-3.68235e-06
-3.38802e-06
-3.03649e-06
-3.33003e-06
-3.41501e-06
-3.21353e-06
-3.51044e-06
-3.61104e-06
-3.66601e-06
-3.39657e-06
-3.11089e-06
-3.47763e-06
-3.44121e-06
-3.38346e-06
-3.3002e-06
-3.62617e-06
-3.3564e-06
-3.28429e-06
-3.59282e-06
-3.39809e-06
-3.20369e-06
-3.22408e-06
-3.49905e-06
-3.38369e-06
-3.5126e-06
-3.38327e-06
-3.42522e-06
-3.32765e-06
-3.46505e-06
-3.3546e-06
-3.29062e-06
-3.45945e-06
-3.39062e-06
-3.34926e-06
-3.57754e-06
-3.42265e-06
-3.52751e-06
-3.33619e-06
-3.56961e-06
-3.43512e-06
-3.19272e-06
-3.21937e-06
-3.39757e-06
-3.49963e-06
-3.54964e-06
-3.35875e-06
-3.39685e-06
-3.18582e-06
-3.34088e-06
-3.70784e-06
-3.54984e-06
-3.5108e-06
-3.4829e-06
-3.50284e-06
-3.43693e-06
-3.18346e-06
-3.43238e-06
-3.50414e-06
-3.46158e-06
-3.23605e-06
-3.36719e-06
-3.53541e-06
-3.32541e-06
-3.44706e-06
-3.48411e-06
-3.49658e-06
-3.38426e-06
-3.31057e-06
-3.44452e-06
-3.16601e-06
-3.51917e-06
-3.58053e-06
-3.48688e-06
-3.30208e-06
-3.43115e-06
-3.34973e-06
-3.43351e-06
-3.53823e-06
-3.67832e-06
-3.39559e-06
-3.47277e-06
-3.41145e-06
-3.36047e-06
-3.24093e-06
-3.33338e-06
-3.21353e-06
-3.27094e-06
-3.62771e-06
-3.65465e-06
-3.44527e-06
-3.18503e-06
-3.3903e-06
-3.18456e-06
-3.46738e-06
-3.40625e-06
-3.2992e-06
-3.26252e-06
-3.37856e-06
-3.49742e-06
-3.35367e-06
-3.365e-06
-3.38761e-06
-3.49925e-06
-3.39944e-06
-3.51156e-06
-3.55524e-06
-3.50231e-06
-3.41963e-06
-3.4901e-06
-3.52785e-06
-3.5712e-06
-3.34099e-06
-3.36436e-06
-3.45402e-06
-3.49579e-06
-3.36082e-06
-3.49627e-06
-3.44002e-06
-3.35205e-06
-3.43966e-06
-3.46454e-06
-3.52924e-06
-3.47942e-06
-3.29345e-06
-3.3805e-06
-3.51499e-06
-3.18721e-06
-3.47466e-06
-3.40842e-06
-3.54776e-06
-3.5026e-06
-3.62761e-06
-3.42265e-06
-3.37139e-06
-3.41555e-06
-3.43261e-06
-3.52213e-06
-3.49917e-06
-3.3413e-06
-3.27972e-06
-3.50291e-06
-3.3493e-06
-3.35416e-06
-3.30661e-06
-3.53382e-06
-3.79184e-06
-3.18703e-06
-3.22718e-06
-3.6039e-06
-3.3227e-06
-3.43512e-06
-3.26098e-06
-3.33072e-06
-3.34094e-06
-3.48847e-06
-3.3217e-06
-3.20905e-06
-3.37435e-06
-3.28377e-06
-3.48119e-06
-3.57932e-06
-3.33398e-06
-3.36816e-06
-3.35847e-06
-3.4767e-06
-3.5229e-06
-3.55931e-06
-3.50649e-06
-3.2437e-06
-3.39e-06
-3.24078e-06
-3.51832e-06
-3.30675e-06
-3.48099e-06
-3.40087e-06
-3.50692e-06
-3.63324e-06
-3.69311e-06
-3.39077e-06
-3.42095e-06
-3.49984e-06
-3.58877e-06
-3.20705e-06
-3.29422e-06
-3.42223e-06
-3.47278e-06
-3.55912e-06
-3.35062e-06
-3.41991e-06
-3.51545e-06
-3.49442e-06
-3.54223e-06
-3.45543e-06
-3.69054e-06
-3.63067e-06
-3.28439e-06
-3.34853e-06
-3.48211e-06
-3.56021e-06
-3.32351e-06
-3.43298e-06
-3.42604e-06
-3.37575e-06
-3.58193e-06
-3.54657e-06
-3.6526e-06
-3.32959e-06
-3.49171e-06
-3.40744e-06
-3.16402e-06
-3.38122e-06
-3.56029e-06
-3.47425e-06
-3.48595e-06
-3.38913e-06
-3.44509e-06
-3.51676e-06
-3.50661e-06
-3.56272e-06
-3.3812e-06
-3.43278e-06
-3.34865e-06
-3.271e-06
-3.45615e-06
-3.59895e-06
-3.43565e-06
-3.56827e-06
-3.43852e-06
-3.52156e-06
-3.45479e-06
-3.62109e-06
-3.41555e-06
-3.65307e-06
-3.30181e-06
-3.34341e-06
-3.46279e-06
-3.52083e-06
-3.47529e-06
-3.36265e-06
-3.68384e-06
-3.53974e-06
-3.342e-06
-3.137e-06
-3.31734e-06
-3.47426e-06
-3.21589e-06
-3.53313e-06
-3.41072e-06
-3.32832e-06
-3.49408e-06
-3.50431e-06
-3.60379e-06
-3.33465e-06
-3.50126e-06
-3.39345e-06
-3.09787e-06
-3.54224e-06
-3.50656e-06
-3.50987e-06
-3.37311e-06
-3.27383e-06
-3.32541e-06
-3.33967e-06
-3.29031e-06
-3.55644e-06
-3.68741e-06
-3.56589e-06
-3.45417e-06
-3.3009e-06
-3.25015e-06
-3.73391e-06
-3.69907e-06
-3.43604e-06
-3.44162e-06
-3.51703e-06
-3.53592e-06
-3.51263e-06
-3.41906e-06
-3.34719e-06
-3.49989e-06
-3.59512e-06
-3.47542e-06
-3.40626e-06
-3.36681e-06
-3.56816e-06
-3.66506e-06
-3.54895e-06
-3.60053e-06
-3.49984e-06
-3.57163e-06
-3.41556e-06
-3.57105e-06
-3.6656e-06
-3.62431e-06
-3.32274e-06
-3.37969e-06
-3.49988e-06
-3.58267e-06
-3.55839e-06
-3.41478e-06
-3.57494e-06
-3.5183e-06
-3.39892e-06
-3.38991e-06
-3.51912e-06
-3.56763e-06
-3.4885e-06
-3.387e-06
-3.54092e-06
-3.44673e-06
-3.58796e-06
-3.49005e-06
-3.3703e-06
-3.25745e-06
-3.36817e-06
-3.43617e-06
-3.40896e-06
-3.45645e-06
-3.38234e-06
-3.48242e-06
-3.42854e-06
-3.32988e-06
-3.48448e-06
-3.40608e-06
-3.56173e-06
-3.48649e-06
-3.30149e-06
-3.24685e-06
-3.35439e-06
-3.3743e-06
-3.30181e-06
-3.60632e-06
-3.32646e-06
-3.45982e-06
-3.51719e-06
-3.56168e-06
-3.37913e-06
-3.25332e-06
-3.29993e-06
-3.32373e-06
-3.39147e-06
-3.57519e-06
-3.36614e-06
-3.25696e-06
-3.29754e-06
-3.64624e-06
-3.27561e-06
-3.40637e-06
-3.239e-06
-3.52446e-06
-3.40609e-06
-3.47991e-06
-3.5574e-06
-3.30883e-06
-3.53009e-06
-3.69523e-06
-3.4233e-06
-3.62623e-06
-3.41991e-06
-3.55024e-06
-3.52726e-06
-3.44682e-06
-3.22203e-06
-3.38284e-06
-3.49517e-06
-3.43903e-06
-3.50645e-06
-3.59975e-06
-3.37637e-06
-3.5788e-06
-3.69743e-06
-3.63414e-06
-3.34562e-06
-3.15299e-06
-3.33536e-06
-3.40397e-06
-3.52895e-06
-3.45704e-06
-3.41314e-06
-3.36325e-06
-3.49806e-06
-3.15709e-06
-3.36816e-06
-3.36321e-06
-3.39703e-06
-3.53676e-06
-3.43522e-06
-3.69297e-06
-3.65958e-06
-3.37582e-06
-3.38449e-06
-3.44743e-06
-3.49926e-06
-3.51894e-06
-3.46866e-06
-3.47076e-06
-3.44242e-06
-3.49859e-06
-3.57666e-06
-3.54977e-06
-3.45275e-06
-3.18214e-06
-3.38668e-06
-3.29739e-06
-3.57954e-06
-3.5223e-06
-3.30297e-06
-3.44392e-06
-3.43105e-06
-3.59677e-06
-3.36168e-06
-3.33323e-06
-3.22072e-06
-3.44715e-06
-3.57721e-06
-3.51437e-06
-3.45108e-06
-3.57532e-06
-3.48986e-06
-3.33088e-06
-3.42712e-06
-3.61871e-06
-3.38281e-06
-3.40684e-06
-3.36069e-06
-3.62353e-06
-3.59618e-06
-3.4548e-06
-3.30384e-06
-3.32646e-06
-3.45742e-06
-3.49453e-06
-3.52225e-06
-3.52738e-06
-3.5475e-06
-3.34631e-06
-3.17859e-06
-3.4404e-06
-3.50193e-06
-3.34235e-06
-3.634e-06
-3.56054e-06
-3.57379e-06
-3.3514e-06
-3.38093e-06
-3.23375e-06
-3.56344e-06
-3.37275e-06
-3.39392e-06
-3.45978e-06
-3.38311e-06
-3.4325e-06
-3.30555e-06
-3.6627e-06
-3.65036e-06
-3.43637e-06
-3.53595e-06
-3.31626e-06
-3.50838e-06
-3.46632e-06
-3.45673e-06
-3.25902e-06
-3.39993e-06
-3.19024e-06
-3.50237e-06
-3.61301e-06
-3.61242e-06
-3.27666e-06
-3.41787e-06
-3.72543e-06
-3.65995e-06
-3.48058e-06
-3.53505e-06
-3.54937e-06
-3.50743e-06
-3.40331e-06
-3.36306e-06
-3.4361e-06
-3.54919e-06
-3.37287e-06
-3.44584e-06
-3.5563e-06
-3.38908e-06
-3.4583e-06
-3.56915e-06
-3.45731e-06
-3.46397e-06
-3.48243e-06
-3.45648e-06
-3.30595e-06
-3.37609e-06
-3.36964e-06
-3.44885e-06
-3.22917e-06
-3.43267e-06
-3.61562e-06
-3.4867e-06
-3.35673e-06
-3.40238e-06
-3.62402e-06
-3.46058e-06
-3.38877e-06
-3.37431e-06
-3.29812e-06
-3.47192e-06
-3.32376e-06
-3.25914e-06
-3.30854e-06
-3.49134e-06
-3.54302e-06
-3.37644e-06
-3.4149e-06
-3.47858e-06
-3.56266e-06
-3.33772e-06
-3.54496e-06
-3.5225e-06
-3.52292e-06
-3.47645e-06
-3.38906e-06
-3.21531e-06
-3.15014e-06
-3.40014e-06
-3.40237e-06
-3.48187e-06
-3.59974e-06
-3.64095e-06
-3.34485e-06
-3.49453e-06
-3.30158e-06
-3.49974e-06
-3.37774e-06
-3.47719e-06
-3.51915e-06
-3.36979e-06
-3.17557e-06
-3.49989e-06
-3.3908e-06
-3.44986e-06
-3.68066e-06
-3.61189e-06
-3.57937e-06
-3.54886e-06
-3.48186e-06
-3.54193e-06
-3.52381e-06
-3.43318e-06
-3.3335e-06
-3.4719e-06
-3.4501e-06
-3.6561e-06
-3.3727e-06
-3.35313e-06
-3.59088e-06
-3.70379e-06
-3.39358e-06
-3.42156e-06
-3.34794e-06
-3.35976e-06
-3.61258e-06
-3.45349e-06
-3.42872e-06
-3.30136e-06
-3.18926e-06
-3.52156e-06
-3.30962e-06
-3.35726e-06
-3.39854e-06
-3.387e-06
-3.37583e-06
-3.37639e-06
-3.44072e-06
-3.51075e-06
-3.46429e-06
-3.50981e-06
-3.35895e-06
-3.33173e-06
-3.34302e-06
-3.25736e-06
-3.46118e-06
-3.5729e-06
-3.51419e-06
-3.40791e-06
-3.45097e-06
-3.49323e-06
-3.27002e-06
-3.35277e-06
-3.37167e-06
-3.42523e-06
-3.48293e-06
-3.51411e-06
-3.32725e-06
-3.19691e-06
-3.47873e-06
-3.60364e-06
-3.48234e-06
-3.25804e-06
-3.39339e-06
-3.4837e-06
-3.47173e-06
-3.40556e-06
-3.33711e-06
-3.36046e-06
-3.46635e-06
-3.46887e-06
-3.36066e-06
-3.32586e-06
-3.41494e-06
-3.4878e-06
-3.48882e-06
-3.41402e-06
-3.46024e-06
-3.4129e-06
-3.23018e-06
-3.40921e-06
-3.42083e-06
-3.45238e-06
-3.51523e-06
-3.4681e-06
-3.50415e-06
-3.2908e-06
-3.24994e-06
-3.24891e-06
-3.36184e-06
-3.41549e-06
-3.5485e-06
-3.4364e-06
-3.49974e-06
-3.37247e-06
-3.57758e-06
-3.48e-06
-3.85273e-06
-3.53596e-06
-3.508e-06
-3.37692e-06
-3.42207e-06
-3.61481e-06
-3.66319e-06
-3.4845e-06
-3.676e-06
-3.43234e-06
-3.56603e-06
-3.41649e-06
-3.46607e-06
-3.48401e-06
-3.37646e-06
-3.30213e-06
-3.46799e-06
-3.45478e-06
-3.34663e-06
-3.33074e-06
-3.33231e-06
-3.35006e-06
-3.2924e-06
-3.27426e-06
-3.36129e-06
-3.36913e-06
-3.42106e-06
-3.76455e-06
-3.53598e-06
-3.55546e-06
-3.44192e-06
-3.31546e-06
-3.4572e-06
-3.55033e-06
-3.54067e-06
-3.30298e-06
-3.22369e-06
-3.36777e-06
-3.56174e-06
-3.54117e-06
-3.57692e-06
-3.50556e-06
-3.42299e-06
-3.34441e-06
-3.29918e-06
-3.20479e-06
-3.41476e-06
-3.42573e-06
-3.46606e-06
-3.63482e-06
-3.3412e-06
-3.58708e-06
-3.45566e-06
-3.34959e-06
-3.45737e-06
-3.46498e-06
-3.40764e-06
-3.39815e-06
-3.65679e-06
-3.47146e-06
-3.52787e-06
-3.57607e-06
-3.53174e-06
-3.42762e-06
-3.35183e-06
-3.40951e-06
-3.52155e-06
-3.44344e-06
-3.51405e-06
-3.61082e-06
-3.51646e-06
-3.43067e-06
-3.54683e-06
-3.4191e-06
-3.41095e-06
-3.45286e-06
-3.37154e-06
-3.43486e-06
-3.32866e-06
-3.51447e-06
-3.5515e-06
-3.52633e-06
-3.25767e-06
-3.22178e-06
-3.47781e-06
-3.36059e-06
-3.29614e-06
-3.27913e-06
-3.41893e-06
-3.33426e-06
-3.35343e-06
-3.4848e-06
-3.39648e-06
-3.49469e-06
-3.64166e-06
-3.57758e-06
-3.59586e-06
-3.50878e-06
-3.67763e-06
-3.89728e-06
-3.39828e-06
-3.39413e-06
-3.4119e-06
-3.35871e-06
-3.3955e-06
-3.34213e-06
-3.47069e-06
-3.62501e-06
-3.46717e-06
-3.45213e-06
-3.33647e-06
-3.3957e-06
-3.27931e-06
-3.27504e-06
-3.38488e-06
-3.58766e-06
-3.54513e-06
-3.49474e-06
-3.53107e-06
-3.33838e-06
-3.14159e-06
-3.29912e-06
-3.68675e-06
-3.70754e-06
-3.35403e-06
-3.46455e-06
-3.40954e-06
-3.51453e-06
-3.31137e-06
-3.38402e-06
-3.75674e-06
-3.52496e-06
-3.54404e-06
-3.47521e-06
-3.40665e-06
-3.48302e-06
-3.38836e-06
-3.47785e-06
-3.55575e-06
-3.64112e-06
-3.3804e-06
-3.33732e-06
-3.43244e-06
-3.50646e-06
-3.41769e-06
-3.22885e-06
-3.29373e-06
-3.43066e-06
-3.45676e-06
-3.13455e-06
-3.17956e-06
-3.60735e-06
-3.44904e-06
-3.35679e-06
-3.61473e-06
-3.55048e-06
-3.46757e-06
-3.40696e-06
-3.26798e-06
-3.22265e-06
-3.35736e-06
-3.4892e-06
-3.26068e-06
-3.293e-06
-3.18665e-06
-3.56061e-06
-3.40302e-06
-3.52036e-06
-3.32105e-06
-3.52941e-06
-3.58371e-06
-3.62781e-06
-3.5498e-06
-3.62995e-06
-3.51472e-06
-3.40607e-06
-3.41396e-06
-3.32692e-06
-3.41989e-06
-3.61891e-06
-3.48497e-06
-3.35508e-06
-3.29975e-06
-3.41924e-06
-3.45458e-06
-3.29308e-06
-3.3665e-06
-3.3846e-06
-3.36828e-06
-3.41756e-06
-3.52409e-06
-3.45516e-06
-3.51883e-06
-3.64923e-06
-3.50878e-06
-3.41893e-06
-3.43855e-06
-3.35604e-06
-3.42181e-06
-3.51416e-06
-3.28213e-06
-3.34587e-06
-3.43786e-06
-3.33943e-06
-3.18017e-06
-3.51092e-06
-3.75046e-06
-3.4485e-06
-3.50157e-06
-3.28108e-06
-3.40935e-06
-3.67804e-06
-3.50047e-06
-3.66525e-06
-3.56576e-06
-3.39615e-06
-3.28729e-06
-3.30442e-06
-3.43147e-06
-3.49894e-06
-3.46341e-06
-3.46697e-06
-3.46999e-06
-3.49645e-06
-3.47353e-06
-3.27139e-06
-3.28252e-06
-3.38868e-06
-3.31214e-06
-3.54525e-06
-3.65265e-06
-3.73714e-06
-3.60706e-06
-3.45542e-06
-3.57301e-06
-3.37382e-06
-3.72532e-06
-3.50067e-06
-3.52173e-06
-3.429e-06
-3.55992e-06
-3.41885e-06
-3.42585e-06
-3.29413e-06
-3.2931e-06
-3.34221e-06
-3.42602e-06
-3.45594e-06
-3.55518e-06
-3.24954e-06
-3.48486e-06
-3.57304e-06
-3.50461e-06
-3.66792e-06
-3.4089e-06
-3.37904e-06
-3.41365e-06
-3.46723e-06
-3.60245e-06
-3.36378e-06
-3.46926e-06
-3.44246e-06
-3.39653e-06
-3.36153e-06
-3.49684e-06
-3.29491e-06
-3.4625e-06
-3.53284e-06
-3.41436e-06
-3.37464e-06
-3.32013e-06
-3.25724e-06
-3.52015e-06
-3.37157e-06
-3.45258e-06
-3.52801e-06
-3.26159e-06
-3.42776e-06
-3.43369e-06
-3.67439e-06
-3.61883e-06
-3.61669e-06
-3.44341e-06
-3.52746e-06
-3.4516e-06
-3.5563e-06
-3.47412e-06
-3.68925e-06
-3.43668e-06
-3.43582e-06
-3.72785e-06
-3.48399e-06
-3.37272e-06
-3.43855e-06
-3.3364e-06
-3.43497e-06
-3.28944e-06
-3.32334e-06
-3.48281e-06
-3.49786e-06
-3.5736e-06
-3.56302e-06
-3.35541e-06
-3.48785e-06
-3.50849e-06
-3.52698e-06
-3.42691e-06
-3.50605e-06
-3.32426e-06
-3.47682e-06
-3.52457e-06
-3.49413e-06
-3.43249e-06
-3.18477e-06
-3.44431e-06
-3.37117e-06
-3.48979e-06
-3.76897e-06
-3.70199e-06
-3.63253e-06
-3.71726e-06
-3.44892e-06
-3.50331e-06
-3.56941e-06
-3.45821e-06
-3.35302e-06
-3.42822e-06
-3.30288e-06
-3.15978e-06
-3.46259e-06
-3.48577e-06
-3.42204e-06
-3.39091e-06
-3.59909e-06
-3.69551e-06
-3.6198e-06
-3.38631e-06
-3.65013e-06
-3.35742e-06
-3.63178e-06
-3.61749e-06
-3.36362e-06
-3.49051e-06
-3.40344e-06
-3.39687e-06
-3.5109e-06
-3.53781e-06
-3.52417e-06
-3.59511e-06
-3.69542e-06
-3.59655e-06
-3.44461e-06
-3.49767e-06
-3.43236e-06
-3.64168e-06
-3.44573e-06
-3.57777e-06
-3.48993e-06
-3.64186e-06
-3.58225e-06
-3.35942e-06
-3.58707e-06
-3.3976e-06
-3.41748e-06
-3.35191e-06
-3.30967e-06
-3.36257e-06
-3.44943e-06
-3.35044e-06
-3.28261e-06
-3.45264e-06
-3.64996e-06
-3.45348e-06
-3.45319e-06
-3.46992e-06
-3.40464e-06
-3.55995e-06
-3.30887e-06
-3.55111e-06
-3.54534e-06
-3.50363e-06
-3.51818e-06
-3.49444e-06
-3.31149e-06
-3.41645e-06
-3.18298e-06
-3.40468e-06
-3.39684e-06
-3.40588e-06
-3.62626e-06
-3.36852e-06
-3.48276e-06
-3.43497e-06
-3.63806e-06
-3.45837e-06
-3.41185e-06
-3.29013e-06
-3.2813e-06
-3.205e-06
-3.39694e-06
-3.51547e-06
-3.46457e-06
-3.48626e-06
-3.50212e-06
-3.44084e-06
-3.33963e-06
-3.33442e-06
-3.44645e-06
-3.60682e-06
-3.53229e-06
-3.40539e-06
-3.38984e-06
-3.55489e-06
-3.52355e-06
-3.60152e-06
-3.78035e-06
-3.46341e-06
-3.46882e-06
-3.38839e-06
-3.59959e-06
-3.39806e-06
-3.43297e-06
-3.32679e-06
-3.33609e-06
-3.29657e-06
-3.34876e-06
-3.39712e-06
-3.37856e-06
-3.32495e-06
-3.17287e-06
-3.48883e-06
-3.47252e-06
-3.44516e-06
-3.39941e-06
-3.50096e-06
-3.3758e-06
-3.32565e-06
-3.54261e-06
-3.65827e-06
-3.59049e-06
-3.21539e-06
-3.47846e-06
-3.36377e-06
-3.31075e-06
-3.26268e-06
-3.57345e-06
-3.36088e-06
-3.6146e-06
-3.78418e-06
-3.40834e-06
-3.26613e-06
-3.44595e-06
-3.42351e-06
-3.46983e-06
-3.46753e-06
-3.56758e-06
-3.451e-06
-3.55693e-06
-3.46341e-06
-3.38816e-06
-3.51754e-06
-3.49247e-06
-3.15996e-06
-3.51269e-06
-3.53937e-06
-3.41723e-06
-3.41475e-06
-3.49018e-06
-3.29199e-06
-3.27809e-06
-3.47173e-06
-3.23838e-06
-3.50842e-06
-3.555e-06
-3.57801e-06
-3.60283e-06
-3.47982e-06
-3.40309e-06
-3.43264e-06
-3.47313e-06
-3.6673e-06
-3.48223e-06
-3.39972e-06
-3.40974e-06
-3.35711e-06
-3.50448e-06
-3.59577e-06
-3.57996e-06
-3.53218e-06
-3.33905e-06
-3.38345e-06
-3.45837e-06
-3.47979e-06
-3.2604e-06
-3.35024e-06
-3.43626e-06
-3.30541e-06
-3.48302e-06
-3.4411e-06
-3.74171e-06
-3.55451e-06
-3.40743e-06
-3.50244e-06
-3.32812e-06
-3.24285e-06
-3.32255e-06
-3.49975e-06
-3.48364e-06
-3.42292e-06
-3.49464e-06
-3.43338e-06
-3.36383e-06
-3.19814e-06
-3.54043e-06
-3.52363e-06
-3.30985e-06
-3.18248e-06
-3.35578e-06
-3.5937e-06
-3.40121e-06
-3.45475e-06
-3.49852e-06
-3.4419e-06
-3.53754e-06
-3.39597e-06
-3.31448e-06
-3.44952e-06
-3.57421e-06
-3.35529e-06
-3.47218e-06
-3.56779e-06
-3.47401e-06
-3.40185e-06
-3.5307e-06
-3.36744e-06
-3.31312e-06
-3.51145e-06
-3.41777e-06
-3.37003e-06
-3.31627e-06
-3.45823e-06
-3.55006e-06
-3.42026e-06
-3.36931e-06
-3.78898e-06
-3.54857e-06
-3.60124e-06
-3.49453e-06
-3.45419e-06
-3.53878e-06
-3.57361e-06
-3.37338e-06
-3.46542e-06
-3.44296e-06
-3.29362e-06
-3.44843e-06
-3.48915e-06
-3.45086e-06
-3.54171e-06
-3.62312e-06
-3.85168e-06
-3.57182e-06
-3.47916e-06
-3.35977e-06
-3.49924e-06
-3.39892e-06
-3.39579e-06
-3.35431e-06
-3.62614e-06
-3.56996e-06
-3.28407e-06
-3.50082e-06
-3.44459e-06
-3.53138e-06
-3.43591e-06
-3.42381e-06
-3.5174e-06
-3.50003e-06
-3.60973e-06
-3.52878e-06
-3.44704e-06
-3.39417e-06
-3.49696e-06
-3.28616e-06
-3.50711e-06
-3.48094e-06
-3.45189e-06
-3.47043e-06
-3.33709e-06
-3.39498e-06
-3.2604e-06
-3.34312e-06
-3.41085e-06
-3.46567e-06
-3.55973e-06
-3.46545e-06
-3.51758e-06
-3.36675e-06
-3.48905e-06
-3.42008e-06
-3.47382e-06
-3.40348e-06
-3.47036e-06
-3.34647e-06
-3.25267e-06
-3.45242e-06
-3.72526e-06
-3.63183e-06
-3.44083e-06
-3.41889e-06
-3.38895e-06
-3.26499e-06
-3.42469e-06
-3.62418e-06
-3.42274e-06
-3.4881e-06
-3.59679e-06
-3.43453e-06
-3.33231e-06
-3.42265e-06
-3.46945e-06
-3.28565e-06
-3.47577e-06
-3.43102e-06
-3.45431e-06
-3.53694e-06
-3.65926e-06
-3.42401e-06
-3.44153e-06
-3.40971e-06
-3.50955e-06
-3.40882e-06
-3.61993e-06
-3.51621e-06
-3.34027e-06
-3.58357e-06
-3.44144e-06
-3.41599e-06
-3.56947e-06
-3.53301e-06
-3.39693e-06
-3.51509e-06
-3.41872e-06
-3.53296e-06
-3.58876e-06
-3.5289e-06
-3.35532e-06
-3.50286e-06
-3.43655e-06
-3.53513e-06
-3.44729e-06
-3.50196e-06