# vtk DataFile Version 2.0
3D Surface
ASCII
DATASET UNSTRUCTURED_GRID
POINTS 15465 float
-1.2e-05 -1.225e-05 -1.03121e-05 
-1.2e-05 -1.2e-05 -1.03084e-05 
-1.225e-05 -1.225e-05 -1.03025e-05 
-1.225e-05 -1.2e-05 -1.03021e-05 
-1.175e-05 -1.225e-05 -1.03212e-05 
-1.175e-05 -1.2e-05 -1.03082e-05 
-1.15e-05 -1.225e-05 -1.03101e-05 
-1.15e-05 -1.2e-05 -1.02964e-05 
-1.125e-05 -1.225e-05 -1.03151e-05 
-1.125e-05 -1.2e-05 -1.0309e-05 
-1.1e-05 -1.225e-05 -1.03189e-05 
-1.1e-05 -1.2e-05 -1.03117e-05 
-1.075e-05 -1.225e-05 -1.03272e-05 
-1.075e-05 -1.2e-05 -1.03152e-05 
-1.05e-05 -1.225e-05 -1.03159e-05 
-1.05e-05 -1.2e-05 -1.03116e-05 
-1.025e-05 -1.225e-05 -1.03136e-05 
-1.025e-05 -1.2e-05 -1.0312e-05 
-1e-05 -1.225e-05 -1.03151e-05 
-1e-05 -1.2e-05 -1.03142e-05 
-9.75e-06 -1.225e-05 -1.03046e-05 
-9.75e-06 -1.2e-05 -1.0307e-05 
-9.5e-06 -1.225e-05 -1.03021e-05 
-9.5e-06 -1.2e-05 -1.0305e-05 
-9.25e-06 -1.225e-05 -1.03061e-05 
-9.25e-06 -1.2e-05 -1.03057e-05 
-9e-06 -1.225e-05 -1.03121e-05 
-9e-06 -1.2e-05 -1.0305e-05 
-8.75e-06 -1.225e-05 -1.03095e-05 
-8.75e-06 -1.2e-05 -1.03114e-05 
-8.5e-06 -1.225e-05 -1.03139e-05 
-8.5e-06 -1.2e-05 -1.03192e-05 
-8.25e-06 -1.225e-05 -1.03186e-05 
-8.25e-06 -1.2e-05 -1.03106e-05 
-8e-06 -1.225e-05 -1.03172e-05 
-8e-06 -1.2e-05 -1.03173e-05 
-7.75e-06 -1.225e-05 -1.03208e-05 
-7.75e-06 -1.2e-05 -1.03173e-05 
-7.5e-06 -1.225e-05 -1.03005e-05 
-7.5e-06 -1.2e-05 -1.03039e-05 
-7.25e-06 -1.225e-05 -1.02993e-05 
-7.25e-06 -1.2e-05 -1.03142e-05 
-7e-06 -1.225e-05 -1.03093e-05 
-7e-06 -1.2e-05 -1.03222e-05 
-6.75e-06 -1.225e-05 -1.03004e-05 
-6.75e-06 -1.2e-05 -1.03159e-05 
-6.5e-06 -1.225e-05 -1.03024e-05 
-6.5e-06 -1.2e-05 -1.03085e-05 
-6.25e-06 -1.225e-05 -1.0306e-05 
-6.25e-06 -1.2e-05 -1.03137e-05 
-6e-06 -1.225e-05 -1.02976e-05 
-6e-06 -1.2e-05 -1.03121e-05 
-5.75e-06 -1.225e-05 -1.03082e-05 
-5.75e-06 -1.2e-05 -1.03132e-05 
-5.5e-06 -1.225e-05 -1.03254e-05 
-5.5e-06 -1.2e-05 -1.0317e-05 
-5.25e-06 -1.225e-05 -1.03176e-05 
-5.25e-06 -1.2e-05 -1.03231e-05 
-5e-06 -1.225e-05 -1.0308e-05 
-5e-06 -1.2e-05 -1.03104e-05 
-4.75e-06 -1.225e-05 -1.032e-05 
-4.75e-06 -1.2e-05 -1.03127e-05 
-4.5e-06 -1.225e-05 -1.03279e-05 
-4.5e-06 -1.2e-05 -1.03127e-05 
-4.25e-06 -1.225e-05 -1.03179e-05 
-4.25e-06 -1.2e-05 -1.03097e-05 
-4e-06 -1.225e-05 -1.03151e-05 
-4e-06 -1.2e-05 -1.03144e-05 
-3.75e-06 -1.225e-05 -1.03066e-05 
-3.75e-06 -1.2e-05 -1.03024e-05 
-3.5e-06 -1.225e-05 -1.0302e-05 
-3.5e-06 -1.2e-05 -1.03107e-05 
-3.25e-06 -1.225e-05 -1.02998e-05 
-3.25e-06 -1.2e-05 -1.03151e-05 
-3e-06 -1.225e-05 -1.03076e-05 
-3e-06 -1.2e-05 -1.03135e-05 
-2.75e-06 -1.225e-05 -1.03177e-05 
-2.75e-06 -1.2e-05 -1.03137e-05 
-2.5e-06 -1.225e-05 -1.0304e-05 
-2.5e-06 -1.2e-05 -1.03146e-05 
-2.25e-06 -1.225e-05 -1.03137e-05 
-2.25e-06 -1.2e-05 -1.03181e-05 
-2e-06 -1.225e-05 -1.03157e-05 
-2e-06 -1.2e-05 -1.03184e-05 
-1.75e-06 -1.225e-05 -1.03101e-05 
-1.75e-06 -1.2e-05 -1.03162e-05 
-1.5e-06 -1.225e-05 -1.03058e-05 
-1.5e-06 -1.2e-05 -1.03114e-05 
-1.25e-06 -1.225e-05 -1.03152e-05 
-1.25e-06 -1.2e-05 -1.03148e-05 
-1e-06 -1.225e-05 -1.03239e-05 
-1e-06 -1.2e-05 -1.0318e-05 
-7.5e-07 -1.225e-05 -1.0314e-05 
-7.5e-07 -1.2e-05 -1.0312e-05 
-5e-07 -1.225e-05 -1.03124e-05 
-5e-07 -1.2e-05 -1.0313e-05 
-2.5e-07 -1.225e-05 -1.0305e-05 
-2.5e-07 -1.2e-05 -1.0317e-05 
0 -1.225e-05 -1.03127e-05 
0 -1.2e-05 -1.03103e-05 
2.5e-07 -1.225e-05 -1.03029e-05 
2.5e-07 -1.2e-05 -1.03e-05 
5e-07 -1.225e-05 -1.03052e-05 
5e-07 -1.2e-05 -1.02995e-05 
7.5e-07 -1.225e-05 -1.0309e-05 
7.5e-07 -1.2e-05 -1.03031e-05 
1e-06 -1.225e-05 -1.03112e-05 
1e-06 -1.2e-05 -1.03126e-05 
1.25e-06 -1.225e-05 -1.0312e-05 
1.25e-06 -1.2e-05 -1.03207e-05 
1.5e-06 -1.225e-05 -1.03177e-05 
1.5e-06 -1.2e-05 -1.03161e-05 
1.75e-06 -1.225e-05 -1.03062e-05 
1.75e-06 -1.2e-05 -1.03113e-05 
2e-06 -1.225e-05 -1.03164e-05 
2e-06 -1.2e-05 -1.0318e-05 
2.25e-06 -1.225e-05 -1.0311e-05 
2.25e-06 -1.2e-05 -1.03119e-05 
2.5e-06 -1.225e-05 -1.03095e-05 
2.5e-06 -1.2e-05 -1.03119e-05 
2.75e-06 -1.225e-05 -1.03017e-05 
2.75e-06 -1.2e-05 -1.0306e-05 
3e-06 -1.225e-05 -1.03098e-05 
3e-06 -1.2e-05 -1.03109e-05 
3.25e-06 -1.225e-05 -1.03029e-05 
3.25e-06 -1.2e-05 -1.0301e-05 
3.5e-06 -1.225e-05 -1.03066e-05 
3.5e-06 -1.2e-05 -1.03127e-05 
3.75e-06 -1.225e-05 -1.03183e-05 
3.75e-06 -1.2e-05 -1.03114e-05 
4e-06 -1.225e-05 -1.03089e-05 
4e-06 -1.2e-05 -1.03093e-05 
4.25e-06 -1.225e-05 -1.03003e-05 
4.25e-06 -1.2e-05 -1.03158e-05 
4.5e-06 -1.225e-05 -1.03062e-05 
4.5e-06 -1.2e-05 -1.03082e-05 
4.75e-06 -1.225e-05 -1.03143e-05 
4.75e-06 -1.2e-05 -1.0302e-05 
5e-06 -1.225e-05 -1.03166e-05 
5e-06 -1.2e-05 -1.03048e-05 
5.25e-06 -1.225e-05 -1.03226e-05 
5.25e-06 -1.2e-05 -1.0309e-05 
5.5e-06 -1.225e-05 -1.0315e-05 
5.5e-06 -1.2e-05 -1.03165e-05 
5.75e-06 -1.225e-05 -1.03074e-05 
5.75e-06 -1.2e-05 -1.03118e-05 
6e-06 -1.225e-05 -1.03129e-05 
6e-06 -1.2e-05 -1.0307e-05 
6.25e-06 -1.225e-05 -1.03196e-05 
6.25e-06 -1.2e-05 -1.03096e-05 
6.5e-06 -1.225e-05 -1.03212e-05 
6.5e-06 -1.2e-05 -1.03169e-05 
6.75e-06 -1.225e-05 -1.03088e-05 
6.75e-06 -1.2e-05 -1.03266e-05 
7e-06 -1.225e-05 -1.03062e-05 
7e-06 -1.2e-05 -1.03144e-05 
7.25e-06 -1.225e-05 -1.03104e-05 
7.25e-06 -1.2e-05 -1.03123e-05 
7.5e-06 -1.225e-05 -1.03138e-05 
7.5e-06 -1.2e-05 -1.03112e-05 
7.75e-06 -1.225e-05 -1.03136e-05 
7.75e-06 -1.2e-05 -1.03062e-05 
8e-06 -1.225e-05 -1.03087e-05 
8e-06 -1.2e-05 -1.02991e-05 
8.25e-06 -1.225e-05 -1.03187e-05 
8.25e-06 -1.2e-05 -1.03162e-05 
8.5e-06 -1.225e-05 -1.03145e-05 
8.5e-06 -1.2e-05 -1.03062e-05 
8.75e-06 -1.225e-05 -1.03142e-05 
8.75e-06 -1.2e-05 -1.03095e-05 
9e-06 -1.225e-05 -1.03215e-05 
9e-06 -1.2e-05 -1.03089e-05 
9.25e-06 -1.225e-05 -1.03144e-05 
9.25e-06 -1.2e-05 -1.03213e-05 
9.5e-06 -1.225e-05 -1.03088e-05 
9.5e-06 -1.2e-05 -1.03117e-05 
9.75e-06 -1.225e-05 -1.0318e-05 
9.75e-06 -1.2e-05 -1.03147e-05 
1e-05 -1.225e-05 -1.03125e-05 
1e-05 -1.2e-05 -1.03118e-05 
1.025e-05 -1.225e-05 -1.03175e-05 
1.025e-05 -1.2e-05 -1.03032e-05 
1.05e-05 -1.225e-05 -1.0313e-05 
1.05e-05 -1.2e-05 -1.03016e-05 
1.075e-05 -1.225e-05 -1.03126e-05 
1.075e-05 -1.2e-05 -1.03074e-05 
1.1e-05 -1.225e-05 -1.03189e-05 
1.1e-05 -1.2e-05 -1.03152e-05 
1.125e-05 -1.225e-05 -1.03162e-05 
1.125e-05 -1.2e-05 -1.03079e-05 
1.15e-05 -1.225e-05 -1.03294e-05 
1.15e-05 -1.2e-05 -1.0315e-05 
1.175e-05 -1.225e-05 -1.03219e-05 
1.175e-05 -1.2e-05 -1.03105e-05 
1.2e-05 -1.225e-05 -1.03092e-05 
1.2e-05 -1.2e-05 -1.0303e-05 
1.225e-05 -1.225e-05 -1.03025e-05 
1.225e-05 -1.2e-05 -1.03021e-05 
-1.2e-05 -1.175e-05 -1.03117e-05 
-1.225e-05 -1.175e-05 -1.03074e-05 
-1.175e-05 -1.175e-05 -1.03063e-05 
-1.15e-05 -1.175e-05 -1.03044e-05 
-1.125e-05 -1.175e-05 -1.03053e-05 
-1.1e-05 -1.175e-05 -1.03078e-05 
-1.075e-05 -1.175e-05 -1.03028e-05 
-1.05e-05 -1.175e-05 -1.03098e-05 
-1.025e-05 -1.175e-05 -1.03083e-05 
-1e-05 -1.175e-05 -1.03146e-05 
-9.75e-06 -1.175e-05 -1.03122e-05 
-9.5e-06 -1.175e-05 -1.03039e-05 
-9.25e-06 -1.175e-05 -1.0313e-05 
-9e-06 -1.175e-05 -1.0311e-05 
-8.75e-06 -1.175e-05 -1.03076e-05 
-8.5e-06 -1.175e-05 -1.03085e-05 
-8.25e-06 -1.175e-05 -1.03095e-05 
-8e-06 -1.175e-05 -1.03121e-05 
-7.75e-06 -1.175e-05 -1.03175e-05 
-7.5e-06 -1.175e-05 -1.03224e-05 
-7.25e-06 -1.175e-05 -1.0323e-05 
-7e-06 -1.175e-05 -1.0316e-05 
-6.75e-06 -1.175e-05 -1.03116e-05 
-6.5e-06 -1.175e-05 -1.03078e-05 
-6.25e-06 -1.175e-05 -1.03267e-05 
-6e-06 -1.175e-05 -1.03116e-05 
-5.75e-06 -1.175e-05 -1.03087e-05 
-5.5e-06 -1.175e-05 -1.03076e-05 
-5.25e-06 -1.175e-05 -1.03133e-05 
-5e-06 -1.175e-05 -1.0299e-05 
-4.75e-06 -1.175e-05 -1.03182e-05 
-4.5e-06 -1.175e-05 -1.03051e-05 
-4.25e-06 -1.175e-05 -1.03072e-05 
-4e-06 -1.175e-05 -1.0317e-05 
-3.75e-06 -1.175e-05 -1.03121e-05 
-3.5e-06 -1.175e-05 -1.03181e-05 
-3.25e-06 -1.175e-05 -1.03191e-05 
-3e-06 -1.175e-05 -1.03087e-05 
-2.75e-06 -1.175e-05 -1.03027e-05 
-2.5e-06 -1.175e-05 -1.03009e-05 
-2.25e-06 -1.175e-05 -1.03087e-05 
-2e-06 -1.175e-05 -1.03232e-05 
-1.75e-06 -1.175e-05 -1.03177e-05 
-1.5e-06 -1.175e-05 -1.03058e-05 
-1.25e-06 -1.175e-05 -1.03203e-05 
-1e-06 -1.175e-05 -1.03091e-05 
-7.5e-07 -1.175e-05 -1.03024e-05 
-5e-07 -1.175e-05 -1.03063e-05 
-2.5e-07 -1.175e-05 -1.03209e-05 
0 -1.175e-05 -1.03156e-05 
2.5e-07 -1.175e-05 -1.03177e-05 
5e-07 -1.175e-05 -1.0304e-05 
7.5e-07 -1.175e-05 -1.03054e-05 
1e-06 -1.175e-05 -1.03185e-05 
1.25e-06 -1.175e-05 -1.03084e-05 
1.5e-06 -1.175e-05 -1.03108e-05 
1.75e-06 -1.175e-05 -1.03167e-05 
2e-06 -1.175e-05 -1.03126e-05 
2.25e-06 -1.175e-05 -1.03078e-05 
2.5e-06 -1.175e-05 -1.03085e-05 
2.75e-06 -1.175e-05 -1.03124e-05 
3e-06 -1.175e-05 -1.03038e-05 
3.25e-06 -1.175e-05 -1.03119e-05 
3.5e-06 -1.175e-05 -1.03202e-05 
3.75e-06 -1.175e-05 -1.03085e-05 
4e-06 -1.175e-05 -1.03034e-05 
4.25e-06 -1.175e-05 -1.03156e-05 
4.5e-06 -1.175e-05 -1.03062e-05 
4.75e-06 -1.175e-05 -1.03128e-05 
5e-06 -1.175e-05 -1.03129e-05 
5.25e-06 -1.175e-05 -1.03102e-05 
5.5e-06 -1.175e-05 -1.03099e-05 
5.75e-06 -1.175e-05 -1.03142e-05 
6e-06 -1.175e-05 -1.03187e-05 
6.25e-06 -1.175e-05 -1.03122e-05 
6.5e-06 -1.175e-05 -1.03086e-05 
6.75e-06 -1.175e-05 -1.03168e-05 
7e-06 -1.175e-05 -1.031e-05 
7.25e-06 -1.175e-05 -1.03099e-05 
7.5e-06 -1.175e-05 -1.03248e-05 
7.75e-06 -1.175e-05 -1.03148e-05 
8e-06 -1.175e-05 -1.03165e-05 
8.25e-06 -1.175e-05 -1.03138e-05 
8.5e-06 -1.175e-05 -1.03114e-05 
8.75e-06 -1.175e-05 -1.0309e-05 
9e-06 -1.175e-05 -1.03085e-05 
9.25e-06 -1.175e-05 -1.03142e-05 
9.5e-06 -1.175e-05 -1.03045e-05 
9.75e-06 -1.175e-05 -1.03136e-05 
1e-05 -1.175e-05 -1.03147e-05 
1.025e-05 -1.175e-05 -1.03082e-05 
1.05e-05 -1.175e-05 -1.03071e-05 
1.075e-05 -1.175e-05 -1.03146e-05 
1.1e-05 -1.175e-05 -1.03196e-05 
1.125e-05 -1.175e-05 -1.03152e-05 
1.15e-05 -1.175e-05 -1.03142e-05 
1.175e-05 -1.175e-05 -1.03111e-05 
1.2e-05 -1.175e-05 -1.03097e-05 
1.225e-05 -1.175e-05 -1.03074e-05 
-1.2e-05 -1.15e-05 -1.03133e-05 
-1.225e-05 -1.15e-05 -1.03115e-05 
-1.175e-05 -1.15e-05 -1.03114e-05 
-1.15e-05 -1.15e-05 -1.03057e-05 
-1.125e-05 -1.15e-05 -1.03207e-05 
[...]
POINT_DATA 15465
SCALARS Velocities float 1
LOOKUP_TABLE default
-3.37065e-06
-3.24063e-06
-3.44394e-06
-3.47637e-06
-3.46656e-06
-3.36231e-06
-3.62597e-06
-3.40783e-06
-3.46441e-06
-3.19314e-06
-3.50782e-06
-3.63314e-06
-3.24857e-06
-3.37024e-06
-3.51165e-06
-3.44227e-06
-3.61502e-06
-3.62983e-06
-3.62617e-06
-3.43743e-06
-3.46139e-06
-3.33091e-06
-3.53264e-06
-3.53551e-06
-3.47694e-06
-3.73205e-06
-3.23177e-06
-3.40707e-06
-3.41221e-06
-3.45904e-06
-3.73104e-06
-3.58633e-06
-3.46006e-06
-3.41054e-06
-3.48739e-06
-3.28533e-06
-3.45748e-06
-3.45009e-06
-3.56477e-06
-3.52381e-06
-3.57475e-06
-3.1647e-06
-3.72824e-06
-3.45797e-06
-3.4465e-06
-3.3651e-06
-3.34702e-06
-3.33091e-06
-3.40266e-06
-3.16569e-06
-3.37639e-06
-3.31045e-06
-3.40012e-06
-3.70129e-06
-3.46114e-06
-3.70315e-06
-3.36626e-06
-3.53108e-06
-3.54531e-06
-3.36232e-06
-3.48062e-06
-3.33553e-06
-3.28683e-06
-3.36927e-06
-3.41676e-06
-3.48213e-06
-3.48259e-06
-3.54364e-06
-3.42475e-06
-3.39804e-06
-3.40561e-06
-3.75544e-06
-3.3802e-06
-3.51838e-06
-3.58823e-06
-3.2686e-06
-3.52513e-06
-3.40424e-06
-3.59992e-06
-3.49288e-06
-3.3715e-06
-3.42943e-06
-3.18454e-06
-3.29026e-06
-3.41394e-06
-3.32688e-06
-3.65971e-06
-3.43068e-06
-3.16038e-06
-3.4785e-06
-3.2064e-06
-3.45015e-06
-3.35676e-06
-3.44427e-06
-3.52371e-06
-3.48488e-06
-3.48795e-06
-3.45501e-06
-3.42136e-06
-3.2939e-06
-3.48794e-06
-3.3183e-06
-3.40503e-06
-3.48372e-06
-3.36189e-06
-3.46258e-06
-3.42378e-06
-3.35655e-06
-3.42256e-06
-3.58644e-06
-3.43728e-06
-3.28234e-06
-3.57205e-06
-3.49754e-06
-3.5046e-06
-3.36384e-06
-3.3715e-06
-3.30388e-06
-3.47303e-06
-3.42282e-06
-3.30221e-06
-3.42094e-06
-3.54376e-06
-3.3783e-06
-3.566e-06
-3.44235e-06
-3.31952e-06
-3.56455e-06
-3.47593e-06
-3.51727e-06
-3.37889e-06
-3.39612e-06
-3.46651e-06
-3.40947e-06
-3.63752e-06
-3.49642e-06
-3.51557e-06
-3.48222e-06
-3.59344e-06
-3.57897e-06
-3.5944e-06
-3.28181e-06
-3.30243e-06
-3.44563e-06
-3.33528e-06
-3.60502e-06
-3.42914e-06
-3.4249e-06
-3.4635e-06
-3.51381e-06
-3.4201e-06
-3.46862e-06
-3.50253e-06
-3.17274e-06
-3.44311e-06
-3.25936e-06
-3.5938e-06
-3.60765e-06
-3.45875e-06
-3.66573e-06
-3.35326e-06
-3.7689e-06
-3.4701e-06
-3.36768e-06
-3.49751e-06
-3.47367e-06
-3.3625e-06
-3.34476e-06
-3.29232e-06
-3.19139e-06
-3.4612e-06
-3.54009e-06
-3.44265e-06
-3.59626e-06
-3.61667e-06
-3.49109e-06
-3.62227e-06
-3.31265e-06
-3.47957e-06
-3.267e-06
-3.53231e-06
-3.4614e-06
-3.39561e-06
-3.57122e-06
-3.33549e-06
-3.54114e-06
-3.12202e-06
-3.58967e-06
-3.32582e-06
-3.51031e-06
-3.27411e-06
-3.35522e-06
-3.43354e-06
-3.47948e-06
-3.36195e-06
-3.34947e-06
-3.44394e-06
-3.47637e-06
-3.33005e-06
-3.54083e-06
-3.2861e-06
-3.52061e-06
-3.33786e-06
-3.54843e-06
-3.39082e-06
-3.29733e-06
-3.46848e-06
-3.34611e-06
-3.47159e-06
-3.61419e-06
-3.64185e-06
-3.55752e-06
-3.80993e-06
-3.48128e-06
-3.48485e-06
-3.43088e-06
-3.46038e-06
-3.62118e-06
-3.40534e-06
-3.56998e-06
-3.31965e-06
-3.39882e-06
-3.32731e-06
-3.37235e-06
-3.55177e-06
-3.41322e-06
-3.65133e-06
-3.40851e-06
-3.58473e-06
-3.68089e-06
-3.76646e-06
-3.50087e-06
-3.29168e-06
-3.37873e-06
-3.55919e-06
-3.2651e-06
-3.50257e-06
-3.41868e-06
-3.34952e-06
-3.37177e-06
-3.46715e-06
-3.40392e-06
-3.58501e-06
-3.37697e-06
-3.35823e-06
-3.48303e-06
-3.51168e-06
-3.49326e-06
-3.47431e-06
-3.36173e-06
-3.4229e-06
-3.29958e-06
-3.74776e-06
-3.58268e-06
-3.43807e-06
-3.27582e-06
-3.32467e-06
-3.3897e-06
-3.52841e-06
-3.38875e-06
-3.4923e-06
-3.43858e-06
-3.51495e-06
-3.36579e-06
-3.57779e-06
-3.76259e-06
-3.61973e-06
-3.68167e-06
-3.64772e-06
-3.33544e-06
-3.46481e-06
-3.52745e-06
-3.33709e-06
-3.28855e-06
-3.50433e-06
-3.27743e-06
-3.39592e-06
-3.59039e-06
-3.53785e-06
-3.54288e-06
-3.36581e-06
-3.47868e-06
-3.2904e-06
-3.53013e-06
-3.70174e-06
-3.46521e-06
-3.47298e-06
-3.34471e-06
-3.45703e-06
-3.48063e-06
-3.68428e-06
-3.65192e-06
-3.21844e-06
-3.58548e-06
-3.48954e-06
-3.37556e-06
-3.54083e-06
-3.44381e-06
-3.3899e-06
-3.3509e-06
-3.31185e-06
-3.42916e-06
-3.44036e-06
-3.57643e-06
-3.4203e-06
-3.33851e-06
-3.27435e-06
-3.47555e-06
-3.41738e-06
-3.38637e-06
-3.35791e-06
-3.44996e-06
-3.48954e-06
-3.49837e-06
-3.58661e-06
-3.52199e-06
-3.57616e-06
-3.63244e-06
-3.5681e-06
-3.30635e-06
-3.3516e-06
-3.32712e-06
-3.15211e-06
-3.45628e-06
-3.38765e-06
-3.46677e-06
-3.58671e-06
-3.57463e-06
-3.3174e-06
-3.45123e-06
-3.36631e-06
-3.52285e-06
-3.35399e-06
-3.29019e-06
-3.47179e-06
-3.53305e-06
-3.38993e-06
-3.46232e-06
-3.46233e-06
-3.29022e-06
-3.63567e-06
-3.57868e-06
-3.25833e-06
-3.4433e-06
-3.51168e-06
-3.42929e-06
-3.44194e-06
-3.62502e-06
-3.51649e-06
-3.42528e-06
-3.34734e-06
-3.62716e-06
-3.49999e-06
-3.69537e-06
-3.35035e-06
-3.53048e-06
-3.48706e-06
-3.53086e-06
-3.60069e-06
-3.64362e-06
-3.41649e-06
-3.46779e-06
-3.54953e-06
-3.50031e-06
-3.42491e-06
-3.67948e-06
-3.58475e-06
-3.47642e-06
-3.21684e-06
-3.39719e-06
-3.47101e-06
-3.43643e-06
-3.25233e-06
-3.65946e-06
-3.35012e-06
-3.33257e-06
-3.40211e-06
-3.5183e-06
-3.47868e-06
-3.25269e-06
-3.49088e-06
-3.49093e-06
-3.54931e-06
-3.53238e-06
-3.31067e-06
-3.43174e-06
-3.40754e-06
-3.43459e-06
-3.41291e-06
-3.6047e-06
-3.63777e-06
-3.50436e-06
-3.38137e-06
-3.33428e-06
-3.47017e-06
-3.3899e-06
-3.46626e-06
-3.35755e-06
-3.50212e-06
-3.37959e-06
-3.25172e-06
-3.42479e-06
-3.45086e-06
-3.32608e-06
-3.29993e-06
-3.49654e-06
-3.4914e-06
-3.4471e-06
-3.25553e-06
-3.43721e-06
-3.20226e-06
-3.2613e-06
-3.48193e-06
-3.65707e-06
-3.6885e-06
-3.42594e-06
-3.43423e-06
-3.42685e-06
-3.34682e-06
-3.41548e-06
-3.33529e-06
-3.40434e-06
-3.56746e-06
-3.347e-06
-3.17337e-06
-3.09685e-06
-3.31738e-06
-3.48849e-06
-3.5031e-06
-3.44751e-06
-3.42568e-06
-3.3484e-06
-3.42572e-06
-3.30514e-06
-3.48997e-06
-3.32037e-06
-3.48862e-06
-3.39672e-06
-3.48774e-06
-3.60677e-06
-3.65901e-06
-3.50721e-06
-3.27834e-06
-3.2721e-06
-3.33577e-06
-3.41842e-06
-3.60743e-06
-3.56919e-06
-3.6708e-06
-3.2074e-06
-3.34276e-06
-3.30192e-06
-3.62572e-06
-3.32231e-06
-3.27773e-06
-3.40805e-06
-3.44353e-06
-3.41546e-06
-3.56704e-06
-3.26747e-06
-3.46911e-06
-3.39618e-06
-3.58647e-06
-3.3829e-06
-3.3019e-06
-3.29764e-06
-3.54749e-06
-3.32863e-06
-3.30904e-06
-3.42929e-06
-3.59858e-06
-3.47643e-06
-3.5079e-06
-3.60645e-06
-3.50732e-06
-3.12837e-06
-3.61695e-06
-3.51865e-06
-3.30913e-06
-3.47396e-06
-3.51651e-06
-3.41098e-06
-3.29712e-06
-3.15938e-06
-3.49571e-06
-3.50743e-06
-3.62392e-06
-3.46136e-06
-3.43437e-06
-3.50031e-06
-3.35762e-06
-3.17477e-06
-3.30964e-06
-3.37752e-06
-3.35755e-06
-3.38605e-06
-3.53144e-06
-3.41573e-06
-3.41479e-06
-3.37854e-06
-3.56754e-06
-3.33433e-06
-3.42078e-06
-3.36221e-06
-3.53463e-06
-3.50277e-06
-3.52565e-06
-3.3519e-06
-3.51883e-06
-3.37033e-06
-3.38963e-06
-3.55234e-06
-3.62038e-06
-3.38782e-06
-3.45857e-06
-3.41074e-06
-3.45213e-06
-3.52565e-06
-3.48071e-06
-3.37024e-06
-3.33821e-06
-3.31642e-06
-3.38013e-06
-3.31829e-06
-3.12369e-06
-3.37341e-06
-3.46715e-06
-3.49615e-06
-3.4958e-06
-3.48716e-06
-3.38889e-06
-3.4399e-06
-3.442e-06
-3.65617e-06
-3.56005e-06
-3.11143e-06
-3.22904e-06
-3.26809e-06
-3.20854e-06
-3.552e-06
-3.42281e-06
-3.28395e-06
-3.3454e-06
-3.33109e-06
-3.37938e-06
-3.41526e-06
-3.48574e-06
-3.63939e-06
-3.18044e-06
-3.2606e-06
-3.30724e-06
-3.49607e-06
-3.54175e-06
-3.30794e-06
-3.55407e-06
-3.3514e-06
-3.55909e-06
-3.77104e-06
-3.32939e-06
-3.43492e-06
-3.29738e-06
-3.37912e-06
-3.42708e-06
-3.52559e-06
-3.51538e-06
-3.70438e-06
-3.50342e-06
-3.55615e-06
-3.47492e-06
-3.47257e-06
-3.41564e-06
-3.51289e-06
-3.36432e-06
-3.3307e-06
-3.03917e-06
-3.4924e-06
-3.49457e-06
-3.33846e-06
-3.34129e-06
-3.35322e-06
-3.35684e-06
-3.30636e-06
-3.21976e-06
-3.5619e-06
-3.44098e-06
-3.37547e-06
-3.33653e-06
-3.40051e-06
-3.45581e-06
-3.24615e-06
-3.44658e-06
-3.61884e-06
-3.51261e-06
-3.53144e-06
-3.46202e-06
-3.43912e-06
-3.62174e-06
-3.33027e-06
-3.44327e-06
-3.69858e-06
-3.38985e-06
-3.34624e-06
-3.4682e-06
-3.7217e-06
-3.53751e-06
-3.63005e-06
-3.52811e-06
-3.49271e-06
-3.35495e-06
-3.28025e-06
-3.62216e-06
-3.48755e-06
-3.19017e-06
-3.30372e-06
-3.28391e-06
-3.13206e-06
-3.24909e-06
-3.51696e-06
-3.58488e-06
-3.54641e-06
-3.4288e-06
-3.40287e-06
-3.50276e-06
-3.53201e-06
-3.45913e-06
-3.30337e-06
-3.29013e-06
-3.30541e-06
-3.35445e-06
-3.47369e-06
-3.46961e-06
-3.34582e-06
-3.55494e-06
-3.62024e-06
-3.32799e-06
-3.41116e-06
-3.42345e-06
-3.24149e-06
-3.48878e-06
-3.47115e-06
-3.35628e-06
-3.45689e-06
-3.41155e-06
-3.51083e-06
-3.59794e-06
-3.34413e-06
-3.62645e-06
-3.46553e-06
-3.39771e-06
-3.48451e-06
-3.41738e-06
-3.48063e-06
-3.48865e-06
-3.44274e-06
-3.59526e-06
-3.47815e-06
-3.57561e-06
-3.33698e-06
-3.22305e-06
-3.28556e-06
-3.46609e-06
-3.4055e-06
-3.34716e-06
-3.43854e-06
-3.63087e-06
-3.75541e-06
-3.4337e-06
-3.48883e-06
-3.4082e-06
-3.70693e-06
-3.55848e-06
-3.42601e-06
-3.50041e-06
-3.23832e-06
-3.26554e-06
-3.48338e-06
-3.27042e-06
-3.5182e-06
-3.5967e-06
-3.39144e-06
-3.40346e-06
-3.235e-06
-3.25204e-06
-3.40935e-06
-3.43801e-06
-3.37287e-06
-3.54439e-06
-3.64688e-06
-3.36787e-06
-3.55352e-06
-3.51135e-06
-3.4415e-06
-3.43912e-06
-3.4001e-06
-3.45011e-06
-3.40459e-06
-3.48397e-06
-3.38327e-06
-3.29506e-06
-3.29923e-06
-3.42817e-06
-3.65175e-06
-3.44071e-06
-3.53033e-06
-3.39798e-06
-3.38939e-06
-3.60734e-06
-3.46277e-06
-3.2771e-06
-3.47513e-06
-3.35666e-06
-3.32281e-06
-3.33495e-06
-3.30997e-06
-3.28696e-06
-3.41876e-06
-3.36307e-06
-3.5139e-06
-3.37806e-06
-3.44919e-06
-3.39366e-06
-3.19628e-06
-3.40788e-06
-3.43597e-06
-3.32541e-06
-3.55658e-06
-3.64604e-06
-3.39851e-06
-3.46762e-06
-3.5618e-06
-3.58005e-06
-3.35206e-06
-3.61431e-06
-3.37278e-06
-3.47586e-06
-3.54531e-06
-3.43325e-06
-3.66323e-06
-3.40792e-06
-3.30119e-06
-3.44378e-06
-3.37601e-06
-3.39961e-06
-3.40692e-06
-3.43538e-06
-3.52166e-06
-3.73672e-06
-3.34084e-06
-3.63023e-06
-3.39755e-06
-3.26792e-06
-3.33167e-06
-3.33053e-06
-3.40753e-06
-3.30751e-06
-3.46709e-06
-3.4549e-06
-3.32675e-06
-3.57791e-06
-3.53531e-06
-3.5682e-06
-3.30055e-06
-3.29422e-06
-3.40368e-06
-3.40695e-06
-3.42107e-06
-3.3496e-06
-3.46376e-06
-3.48116e-06
-3.28852e-06
-3.18953e-06
-3.42947e-06
-3.49991e-06
-3.44335e-06
-3.48284e-06
-3.27594e-06
-3.50198e-06
-3.76242e-06
-3.53243e-06
-3.56995e-06
-3.44467e-06
-3.22776e-06
-3.55886e-06
-3.36912e-06
-3.35149e-06
-3.48736e-06
-3.45265e-06
-3.50189e-06
-3.43262e-06
-3.47317e-06
-3.48738e-06
-3.45011e-06
-3.62536e-06
-3.45078e-06
-3.26612e-06
-3.44755e-06
-3.47905e-06
-3.45501e-06
-3.46672e-06
-3.36793e-06
-3.35514e-06
-3.2809e-06
-3.44093e-06
-3.28062e-06
-3.34629e-06
-3.36541e-06
-3.25211e-06
-3.36473e-06
-3.65166e-06
-3.20314e-06
-3.52068e-06
-3.44938e-06
-3.35848e-06
-3.48447e-06
-3.67915e-06
-3.58008e-06
-3.54937e-06
-3.44917e-06
-3.56598e-06
-3.40865e-06
-3.3935e-06
-3.48454e-06
-3.36364e-06
-3.43208e-06
-3.42506e-06
-3.50313e-06
-3.41866e-06
-3.56411e-06
-3.55919e-06
-3.47763e-06
-3.449e-06
-3.33945e-06
-3.57856e-06
-3.72696e-06
-3.60386e-06
-3.42386e-06
-3.46965e-06
-3.24579e-06
-3.34787e-06
-3.22809e-06
-3.23031e-06
-3.53312e-06
-3.51024e-06
-3.5617e-06
-3.5781e-06
-3.64627e-06
-3.39882e-06
-3.55848e-06
-3.56195e-06
-3.45397e-06
-3.29368e-06
-3.55893e-06
-3.47161e-06
-3.29696e-06
-3.35116e-06
-3.58993e-06
-3.48866e-06
-3.44859e-06
-3.42669e-06
-3.62759e-06
-3.4161e-06
-3.41887e-06
-3.48847e-06
-3.46724e-06
-3.54408e-06
-3.3431e-06
-3.56517e-06
-3.51605e-06
-3.45058e-06
-3.39733e-06
-3.4405e-06
-3.52168e-06
-3.53055e-06
-3.50532e-06
-3.35033e-06
-3.46837e-06
-3.50978e-06
-3.48286e-06
-3.18725e-06
-3.28052e-06
-3.20725e-06
-3.52673e-06
-3.44939e-06
-3.29988e-06
-3.47186e-06
-3.69259e-06
-3.5497e-06
-3.52001e-06
-3.44877e-06
-3.44457e-06
-3.45078e-06
-3.54775e-06
-3.34999e-06
-3.52751e-06
-3.48345e-06
-3.37742e-06
-3.40299e-06
-3.45822e-06
-3.39756e-06
-3.47727e-06
-3.61206e-06
-3.32329e-06
-3.38661e-06
-3.45396e-06
-3.4338e-06
-3.21662e-06
-3.41321e-06
-3.38177e-06
-3.51079e-06
-3.57847e-06
-3.63119e-06
-3.26157e-06
-3.4812e-06
-3.6431e-06
-3.71502e-06
-3.57644e-06
-3.36864e-06
-3.35158e-06
-3.26333e-06
-3.46537e-06
-3.48568e-06
-3.37995e-06
-3.39545e-06
-3.21454e-06
-3.52115e-06
-3.42355e-06
-3.54952e-06
-3.50826e-06
-3.58499e-06
-3.50116e-06
-3.27601e-06
-3.45504e-06
-3.53509e-06
-3.39427e-06
-3.49239e-06
-3.54102e-06
-3.51298e-06
-3.62504e-06
-3.43948e-06
-3.45851e-06
-3.52525e-06
-3.49533e-06
-3.5588e-06
-3.32938e-06
-3.32386e-06
-3.39071e-06
-3.20278e-06
-3.3893e-06
-3.58127e-06
-3.3796e-06
-3.34437e-06
-3.42208e-06
-3.42055e-06
-3.4624e-06
-3.43118e-06
-3.5357e-06
-3.60675e-06
-3.63805e-06
-3.63362e-06
-3.58099e-06
-3.5444e-06
-3.3997e-06
-3.51555e-06
-3.54912e-06
-3.37561e-06
-3.10288e-06
-3.36494e-06
-3.19364e-06
-3.43102e-06
-3.47058e-06
-3.63161e-06
-3.5918e-06
-3.49363e-06
-3.26019e-06
-3.41324e-06
-3.38544e-06
-3.51577e-06
-3.50005e-06
-3.43507e-06
-3.43237e-06
-3.31195e-06
-3.51279e-06
-3.58673e-06
-3.51482e-06
-3.54021e-06
-3.34408e-06
-3.26981e-06
-3.52931e-06
-3.51981e-06
-3.34999e-06
-3.48971e-06
-3.55829e-06
-3.51132e-06
-3.40534e-06
-3.41205e-06
-3.39383e-06
-3.55726e-06
-3.40764e-06
-3.60529e-06
-3.68409e-06
-3.3529e-06
-3.36921e-06
-3.53801e-06
-3.62647e-06
-3.32315e-06
-3.45672e-06
-3.40122e-06
-3.5047e-06
-3.38915e-06
-3.58043e-06
-3.45688e-06
-3.53328e-06
-3.53153e-06
-3.4419e-06
-3.28627e-06
-3.24058e-06
-3.24202e-06
-3.2278e-06
-3.43304e-06
-3.47254e-06
-3.35615e-06
-3.28016e-06
-3.39223e-06
-3.42972e-06
-3.31213e-06
-3.25118e-06
-3.31288e-06
-3.42006e-06
-3.44412e-06
-3.3764e-06
-3.442e-06
-3.55029e-06
-3.52779e-06
-3.39724e-06
-3.35213e-06
-3.4983e-06
-3.466e-06
-3.37897e-06
-3.42312e-06
-3.48225e-06
-3.51822e-06
-3.45592e-06
-3.35013e-06
-3.49181e-06
-3.43285e-06
-3.36695e-06
-3.25103e-06
-3.43632e-06
-3.44134e-06
-3.48008e-06
-3.26966e-06
-3.51401e-06
-3.36527e-06
-3.53359e-06
-3.51873e-06
-3.52185e-06
-3.61201e-06
-3.5409e-06
-3.19101e-06
-3.44291e-06
-3.2657e-06
-3.44879e-06
-3.59536e-06
-3.58435e-06
-3.54897e-06
-3.75372e-06
-3.43047e-06
-3.38046e-06
-3.55798e-06
-3.33937e-06
-3.27282e-06
-3.462e-06
-3.336e-06
-3.33477e-06
-3.45917e-06
-3.52052e-06
-3.55476e-06
-3.25999e-06
-3.38453e-06
-3.61555e-06
-3.25157e-06
-3.34745e-06
-3.3634e-06
-3.6308e-06
-3.38307e-06
-3.51117e-06
-3.3393e-06
-3.16547e-06
-3.55829e-06
-3.45822e-06
-3.4014e-06
-3.45848e-06
-3.50047e-06
-3.55874e-06
-3.35381e-06
-3.4624e-06
-3.2651e-06
-3.28746e-06
-3.54237e-06
-3.5706e-06
-3.5466e-06
-3.46383e-06
-3.53227e-06
-3.499e-06
-3.63025e-06
-3.45962e-06
-3.40587e-06
-3.23115e-06
-3.61507e-06
-3.31198e-06
-3.27274e-06
-3.38433e-06
-3.22661e-06
-3.28124e-06
-3.36458e-06
-3.45586e-06
-3.37854e-06
-3.41365e-06
-3.18062e-06
-3.43443e-06
-3.21507e-06
-3.49435e-06
-3.4519e-06
-3.31016e-06
-3.21156e-06
-3.439e-06
-3.61618e-06
-3.54811e-06
-3.26014e-06
-3.29366e-06
-3.56207e-06
-3.47323e-06
-3.36076e-06
-3.39088e-06
-3.30944e-06
-3.66248e-06
-3.54759e-06
-3.44431e-06
-3.43814e-06
-3.57692e-06
-3.45277e-06
-3.28356e-06
-3.39948e-06
-3.29372e-06
-3.50186e-06
-3.59171e-06
-3.4441e-06
-3.59371e-06
-3.6774e-06
-3.47102e-06
-3.40138e-06
-3.22399e-06
-3.43845e-06
-3.27303e-06
-3.45512e-06
-3.45523e-06
-3.56667e-06
-3.27467e-06
-3.36388e-06
-3.25725e-06
-3.55415e-06
-3.68929e-06
-3.47014e-06
-3.50095e-06
-3.46727e-06
-3.42395e-06
-3.12011e-06
-3.43078e-06
-3.31897e-06
-3.54247e-06
-3.37608e-06
-3.22779e-06
-3.39534e-06
-3.55873e-06
-3.4987e-06
-3.37379e-06
-3.37655e-06
-3.38755e-06
-3.65375e-06
-3.26747e-06
-3.42475e-06
-3.52535e-06
-3.55961e-06
-3.49033e-06
-3.42631e-06
-3.35349e-06
-3.25713e-06
-3.4014e-06
-3.39421e-06
-3.51686e-06
-3.33901e-06
-3.26723e-06
-3.294e-06
-3.38565e-06
-3.44706e-06
-3.64233e-06
-3.3389e-06
-3.26458e-06
-3.34042e-06
-3.62857e-06
-3.5642e-06
-3.44851e-06
-3.42882e-06
-3.44748e-06
-3.70684e-06
-3.50583e-06
-3.45314e-06
-3.45245e-06
-3.64171e-06
-3.52974e-06
-3.5669e-06
-3.24979e-06
-3.36328e-06
-3.38016e-06
-3.3157e-06
-3.40315e-06
-3.41326e-06
-3.55772e-06
-3.40414e-06
-3.30793e-06
-3.34338e-06
-3.23841e-06
-3.37634e-06
-3.3536e-06
-3.44332e-06
-3.27011e-06
-3.47619e-06
-3.36785e-06
-3.47298e-06
-3.51915e-06
-3.21933e-06
-3.43655e-06
-3.47874e-06
-3.41511e-06
-3.633e-06
-3.55844e-06
-3.45166e-06
-3.32972e-06
-3.41124e-06
-3.45152e-06
-3.57362e-06
-3.51465e-06
-3.53929e-06
-3.48287e-06
-3.45149e-06
-3.36293e-06
-3.44237e-06
-3.30846e-06
-3.64151e-06
-3.73835e-06
-3.57419e-06
-3.40561e-06
-3.33472e-06
-3.23345e-06
-3.44818e-06
-3.59961e-06
-3.46671e-06
-3.57266e-06
-3.4682e-06
-3.2955e-06
-3.3915e-06
-3.36244e-06
-3.62423e-06
-3.49904e-06
-3.53682e-06
-3.46746e-06
-3.65902e-06
-3.44417e-06
-3.49105e-06
-3.48527e-06
-3.42544e-06
-3.45559e-06
-3.54293e-06
-3.32974e-06
-3.54308e-06
-3.49113e-06
-3.48178e-06
-3.58259e-06
-3.38436e-06
-3.39765e-06
-3.60476e-06
-3.29687e-06
-3.39867e-06
-3.46644e-06
-3.44681e-06
-3.32117e-06
-3.51686e-06
-3.50218e-06
-3.64937e-06
-3.32233e-06
-3.54839e-06
-3.4789e-06
-3.65258e-06
-3.44086e-06
-3.58843e-06
-3.54803e-06
-3.41984e-06
-3.37297e-06
-3.48583e-06
-3.49482e-06
-3.56787e-06
-3.36863e-06
-3.30183e-06
-3.49472e-06
-3.33875e-06
-3.49111e-06
-3.52088e-06
-3.45471e-06
-3.48631e-06
-3.46828e-06
-3.36716e-06
-3.36764e-06
-3.44e-06
-3.41151e-06
-3.35075e-06
-3.31327e-06
-3.40417e-06
-3.55516e-06
-3.15909e-06
-3.22432e-06
-3.32136e-06
-3.62517e-06
-3.35878e-06
-3.33121e-06
-3.24035e-06
-3.40766e-06
-3.327e-06
-3.32516e-06
-3.54237e-06
-3.45723e-06
-3.46037e-06
-3.47339e-06
-3.50787e-06
-3.58568e-06
-3.45523e-06
-3.42742e-06
-3.41187e-06
-3.41797e-06
-3.48206e-06
-3.66795e-06
-3.46506e-06
-3.43317e-06
-3.33762e-06
-3.37788e-06
-3.54721e-06
-3.70623e-06
-3.54729e-06
-3.46257e-06
-3.38645e-06
-3.29045e-06
-3.47018e-06
-3.41574e-06
-3.22763e-06
-3.31255e-06
-3.48358e-06
-3.5745e-06
-3.43946e-06
-3.41626e-06
-3.24844e-06
-3.43428e-06
-3.49793e-06
-3.34193e-06
-3.40779e-06
-3.32934e-06
-3.5299e-06
-3.37665e-06
-3.70405e-06
-3.49116e-06
-3.48634e-06
-3.38984e-06
-3.55528e-06
-3.57843e-06
-3.26941e-06
-3.35116e-06
-3.45352e-06
-3.36503e-06
-3.37922e-06
-3.51624e-06
-3.7172e-06
-3.52515e-06
-3.38912e-06
-3.39715e-06
-3.57544e-06
-3.29752e-06
-3.27229e-06
-3.64937e-06
-3.68586e-06
-3.35915e-06
-3.34046e-06
-3.46824e-06
-3.63341e-06
-3.66627e-06
-3.4492e-06
-3.65895e-06
-3.69657e-06
-3.60467e-06
-3.24637e-06
-3.40591e-06
-3.65323e-06
-3.57063e-06
-3.58502e-06
-3.50901e-06
-3.41849e-06
-3.63014e-06
-3.5205e-06
-3.68301e-06
-3.39693e-06
-3.3505e-06
-3.2438e-06
-3.30267e-06
-3.34402e-06
-3.39719e-06
-3.61138e-06
-3.50018e-06
-3.33523e-06
-3.44778e-06
-3.51114e-06
-3.27655e-06
-3.0732e-06
-3.30158e-06
-3.3336e-06
-3.40624e-06
-3.57098e-06
-3.62604e-06
-3.66219e-06
-3.52201e-06
-3.44968e-06
-3.46192e-06
-3.3566e-06
-3.38005e-06
-3.32327e-06
-3.40782e-06
-3.25851e-06
-3.31885e-06
-3.3261e-06
-3.38376e-06
-3.33424e-06
-3.50875e-06
-3.3937e-06
-3.45991e-06
-3.42702e-06
-3.37188e-06
-3.28599e-06
-3.59392e-06
-3.44878e-06
-3.46761e-06
-3.16834e-06
-3.33347e-06
-3.38635e-06
-3.43747e-06
-3.19029e-06
-3.48205e-06
-3.56476e-06
-3.52457e-06
-3.32403e-06
-3.2807e-06
-3.40523e-06
-3.31987e-06
-3.55767e-06
-3.58757e-06
-3.34892e-06
-3.335e-06
-3.26583e-06
-3.42835e-06
-3.50407e-06
-3.43616e-06
-3.37935e-06
-3.44306e-06
-3.24943e-06
-3.42692e-06
-3.45582e-06
-3.18729e-06
-3.23783e-06
-3.44408e-06
-3.34476e-06
-3.39102e-06
-3.45581e-06
-3.33024e-06
-3.36846e-06
-3.38043e-06
-3.35611e-06
-3.38635e-06
-3.32946e-06
-3.34753e-06
-3.35915e-06
-3.54974e-06
-3.2232e-06
-3.33041e-06
-3.22362e-06
-3.55355e-06
-3.61953e-06
-3.5118e-06
-3.61061e-06
-3.66535e-06
-3.56224e-06
-3.36164e-06
-3.59618e-06
-3.37904e-06
-3.51751e-06
-3.39474e-06
-3.39642e-06
-3.60683e-06
-3.59382e-06
-3.65117e-06
-3.5243e-06
-3.31284e-06
-3.18151e-06
-3.34178e-06
-3.29628e-06
-3.30241e-06
-3.36907e-06
-3.56585e-06
-3.41492e-06
-3.45699e-06
-3.32658e-06
-3.51981e-06
-3.38908e-06
-3.49574e-06
-3.29829e-06
-3.30012e-06
-3.5306e-06
-3.45976e-06
-3.42511e-06
-3.50405e-06
-3.22952e-06
-3.35945e-06
-3.54715e-06
-3.33521e-06
-3.24379e-06
-3.52518e-06
-3.58905e-06
-3.4644e-06
-3.51022e-06
-3.35661e-06
-3.39247e-06
-3.61798e-06
-3.77645e-06
-3.55551e-06
-3.32752e-06
-3.42676e-06
-3.56852e-06
-3.47833e-06
-3.71468e-06
-3.58944e-06
-3.62514e-06
-3.39515e-06
-3.48299e-06