# vtk DataFile Version 2.0
3D Surface
ASCII
DATASET UNSTRUCTURED_GRID
POINTS 14545 float
-1.2e-05 -1.225e-05 -8.58146e-06 
-1.2e-05 -1.2e-05 -8.58578e-06 
-1.225e-05 -1.225e-05 -8.57966e-06 
-1.225e-05 -1.2e-05 -8.58757e-06 
-1.175e-05 -1.225e-05 -8.59192e-06 
-1.175e-05 -1.2e-05 -8.58463e-06 
-1.15e-05 -1.225e-05 -8.58684e-06 
-1.15e-05 -1.2e-05 -8.58447e-06 
-1.125e-05 -1.225e-05 -8.58678e-06 
-1.125e-05 -1.2e-05 -8.59317e-06 
-1.1e-05 -1.225e-05 -8.59141e-06 
-1.1e-05 -1.2e-05 -8.5895e-06 
-1.075e-05 -1.225e-05 -8.59036e-06 
-1.075e-05 -1.2e-05 -8.59068e-06 
-1.05e-05 -1.225e-05 -8.58807e-06 
-1.05e-05 -1.2e-05 -8.58999e-06 
-1.025e-05 -1.225e-05 -8.5891e-06 
-1.025e-05 -1.2e-05 -8.5906e-06 
-1e-05 -1.225e-05 -8.59189e-06 
-1e-05 -1.2e-05 -8.58899e-06 
-9.75e-06 -1.225e-05 -8.58183e-06 
-9.75e-06 -1.2e-05 -8.58957e-06 
-9.5e-06 -1.225e-05 -8.58613e-06 
-9.5e-06 -1.2e-05 -8.58953e-06 
-9.25e-06 -1.225e-05 -8.58534e-06 
-9.25e-06 -1.2e-05 -8.58205e-06 
-9e-06 -1.225e-05 -8.58516e-06 
-9e-06 -1.2e-05 -8.58675e-06 
-8.75e-06 -1.225e-05 -8.58862e-06 
-8.75e-06 -1.2e-05 -8.59227e-06 
-8.5e-06 -1.225e-05 -8.59349e-06 
-8.5e-06 -1.2e-05 -8.59468e-06 
-8.25e-06 -1.225e-05 -8.58651e-06 
-8.25e-06 -1.2e-05 -8.58765e-06 
-8e-06 -1.225e-05 -8.59459e-06 
-8e-06 -1.2e-05 -8.59072e-06 
-7.75e-06 -1.225e-05 -8.59421e-06 
-7.75e-06 -1.2e-05 -8.58979e-06 
-7.5e-06 -1.225e-05 -8.58744e-06 
-7.5e-06 -1.2e-05 -8.59358e-06 
-7.25e-06 -1.225e-05 -8.58985e-06 
-7.25e-06 -1.2e-05 -8.58778e-06 
-7e-06 -1.225e-05 -8.5916e-06 
-7e-06 -1.2e-05 -8.58849e-06 
-6.75e-06 -1.225e-05 -8.59191e-06 
-6.75e-06 -1.2e-05 -8.58565e-06 
-6.5e-06 -1.225e-05 -8.58633e-06 
-6.5e-06 -1.2e-05 -8.58692e-06 
-6.25e-06 -1.225e-05 -8.58646e-06 
-6.25e-06 -1.2e-05 -8.5821e-06 
-6e-06 -1.225e-05 -8.58549e-06 
-6e-06 -1.2e-05 -8.59053e-06 
-5.75e-06 -1.225e-05 -8.5846e-06 
-5.75e-06 -1.2e-05 -8.59012e-06 
-5.5e-06 -1.225e-05 -8.58552e-06 
-5.5e-06 -1.2e-05 -8.59256e-06 
-5.25e-06 -1.225e-05 -8.59454e-06 
-5.25e-06 -1.2e-05 -8.59682e-06 
-5e-06 -1.225e-05 -8.59167e-06 
-5e-06 -1.2e-05 -8.58879e-06 
-4.75e-06 -1.225e-05 -8.59499e-06 
-4.75e-06 -1.2e-05 -8.58752e-06 
-4.5e-06 -1.225e-05 -8.59403e-06 
-4.5e-06 -1.2e-05 -8.59228e-06 
-4.25e-06 -1.225e-05 -8.59277e-06 
-4.25e-06 -1.2e-05 -8.5949e-06 
-4e-06 -1.225e-05 -8.5894e-06 
-4e-06 -1.2e-05 -8.59267e-06 
-3.75e-06 -1.225e-05 -8.5935e-06 
-3.75e-06 -1.2e-05 -8.58821e-06 
-3.5e-06 -1.225e-05 -8.58533e-06 
-3.5e-06 -1.2e-05 -8.59227e-06 
-3.25e-06 -1.225e-05 -8.58497e-06 
-3.25e-06 -1.2e-05 -8.59241e-06 
-3e-06 -1.225e-05 -8.58226e-06 
-3e-06 -1.2e-05 -8.58582e-06 
-2.75e-06 -1.225e-05 -8.58934e-06 
-2.75e-06 -1.2e-05 -8.58974e-06 
-2.5e-06 -1.225e-05 -8.58701e-06 
-2.5e-06 -1.2e-05 -8.58534e-06 
-2.25e-06 -1.225e-05 -8.59246e-06 
-2.25e-06 -1.2e-05 -8.59458e-06 
-2e-06 -1.225e-05 -8.58236e-06 
-2e-06 -1.2e-05 -8.59395e-06 
-1.75e-06 -1.225e-05 -8.58852e-06 
-1.75e-06 -1.2e-05 -8.59424e-06 
-1.5e-06 -1.225e-05 -8.58607e-06 
-1.5e-06 -1.2e-05 -8.59321e-06 
-1.25e-06 -1.225e-05 -8.5876e-06 
-1.25e-06 -1.2e-05 -8.5888e-06 
-1e-06 -1.225e-05 -8.59144e-06 
-1e-06 -1.2e-05 -8.58838e-06 
-7.5e-07 -1.225e-05 -8.591e-06 
-7.5e-07 -1.2e-05 -8.58858e-06 
-5e-07 -1.225e-05 -8.59468e-06 
-5e-07 -1.2e-05 -8.59404e-06 
-2.5e-07 -1.225e-05 -8.59121e-06 
-2.5e-07 -1.2e-05 -8.59414e-06 
0 -1.225e-05 -8.59032e-06 
0 -1.2e-05 -8.58145e-06 
2.5e-07 -1.225e-05 -8.59584e-06 
2.5e-07 -1.2e-05 -8.58766e-06 
5e-07 -1.225e-05 -8.58868e-06 
5e-07 -1.2e-05 -8.58832e-06 
7.5e-07 -1.225e-05 -8.58649e-06 
7.5e-07 -1.2e-05 -8.58885e-06 
1e-06 -1.225e-05 -8.58621e-06 
1e-06 -1.2e-05 -8.59167e-06 
1.25e-06 -1.225e-05 -8.5849e-06 
1.25e-06 -1.2e-05 -8.59148e-06 
1.5e-06 -1.225e-05 -8.58675e-06 
1.5e-06 -1.2e-05 -8.59175e-06 
1.75e-06 -1.225e-05 -8.5885e-06 
1.75e-06 -1.2e-05 -8.59597e-06 
2e-06 -1.225e-05 -8.59071e-06 
2e-06 -1.2e-05 -8.59066e-06 
2.25e-06 -1.225e-05 -8.58908e-06 
2.25e-06 -1.2e-05 -8.58679e-06 
2.5e-06 -1.225e-05 -8.58911e-06 
2.5e-06 -1.2e-05 -8.59153e-06 
2.75e-06 -1.225e-05 -8.58803e-06 
2.75e-06 -1.2e-05 -8.58638e-06 
3e-06 -1.225e-05 -8.5846e-06 
3e-06 -1.2e-05 -8.58937e-06 
3.25e-06 -1.225e-05 -8.58353e-06 
3.25e-06 -1.2e-05 -8.5886e-06 
3.5e-06 -1.225e-05 -8.5851e-06 
3.5e-06 -1.2e-05 -8.58704e-06 
3.75e-06 -1.225e-05 -8.58716e-06 
3.75e-06 -1.2e-05 -8.59153e-06 
4e-06 -1.225e-05 -8.59264e-06 
4e-06 -1.2e-05 -8.58784e-06 
4.25e-06 -1.225e-05 -8.59417e-06 
4.25e-06 -1.2e-05 -8.59163e-06 
4.5e-06 -1.225e-05 -8.58639e-06 
4.5e-06 -1.2e-05 -8.58593e-06 
4.75e-06 -1.225e-05 -8.58356e-06 
4.75e-06 -1.2e-05 -8.58498e-06 
5e-06 -1.225e-05 -8.58976e-06 
5e-06 -1.2e-05 -8.58819e-06 
5.25e-06 -1.225e-05 -8.58996e-06 
5.25e-06 -1.2e-05 -8.58872e-06 
5.5e-06 -1.225e-05 -8.59349e-06 
5.5e-06 -1.2e-05 -8.59194e-06 
5.75e-06 -1.225e-05 -8.58455e-06 
5.75e-06 -1.2e-05 -8.59057e-06 
6e-06 -1.225e-05 -8.58569e-06 
6e-06 -1.2e-05 -8.59168e-06 
6.25e-06 -1.225e-05 -8.59071e-06 
6.25e-06 -1.2e-05 -8.5895e-06 
6.5e-06 -1.225e-05 -8.59318e-06 
6.5e-06 -1.2e-05 -8.5959e-06 
6.75e-06 -1.225e-05 -8.58627e-06 
6.75e-06 -1.2e-05 -8.60125e-06 
7e-06 -1.225e-05 -8.59046e-06 
7e-06 -1.2e-05 -8.59303e-06 
7.25e-06 -1.225e-05 -8.59278e-06 
7.25e-06 -1.2e-05 -8.58362e-06 
7.5e-06 -1.225e-05 -8.5871e-06 
7.5e-06 -1.2e-05 -8.58479e-06 
7.75e-06 -1.225e-05 -8.58792e-06 
7.75e-06 -1.2e-05 -8.58335e-06 
8e-06 -1.225e-05 -8.58346e-06 
8e-06 -1.2e-05 -8.58826e-06 
8.25e-06 -1.225e-05 -8.59516e-06 
8.25e-06 -1.2e-05 -8.59779e-06 
8.5e-06 -1.225e-05 -8.58597e-06 
8.5e-06 -1.2e-05 -8.5874e-06 
8.75e-06 -1.225e-05 -8.58255e-06 
8.75e-06 -1.2e-05 -8.5826e-06 
9e-06 -1.225e-05 -8.58355e-06 
9e-06 -1.2e-05 -8.58472e-06 
9.25e-06 -1.225e-05 -8.59269e-06 
9.25e-06 -1.2e-05 -8.59195e-06 
9.5e-06 -1.225e-05 -8.59099e-06 
9.5e-06 -1.2e-05 -8.58326e-06 
9.75e-06 -1.225e-05 -8.59611e-06 
9.75e-06 -1.2e-05 -8.58801e-06 
1e-05 -1.225e-05 -8.58606e-06 
1e-05 -1.2e-05 -8.58774e-06 
1.025e-05 -1.225e-05 -8.58995e-06 
1.025e-05 -1.2e-05 -8.58968e-06 
1.05e-05 -1.225e-05 -8.589e-06 
1.05e-05 -1.2e-05 -8.58575e-06 
1.075e-05 -1.225e-05 -8.58746e-06 
1.075e-05 -1.2e-05 -8.58419e-06 
1.1e-05 -1.225e-05 -8.58085e-06 
1.1e-05 -1.2e-05 -8.58634e-06 
1.125e-05 -1.225e-05 -8.58714e-06 
1.125e-05 -1.2e-05 -8.58838e-06 
1.15e-05 -1.225e-05 -8.59317e-06 
1.15e-05 -1.2e-05 -8.59299e-06 
1.175e-05 -1.225e-05 -8.59217e-06 
1.175e-05 -1.2e-05 -8.59305e-06 
1.2e-05 -1.225e-05 -8.58231e-06 
1.2e-05 -1.2e-05 -8.57996e-06 
1.225e-05 -1.225e-05 -8.57966e-06 
1.225e-05 -1.2e-05 -8.58757e-06 
-1.2e-05 -1.175e-05 -8.58432e-06 
-1.225e-05 -1.175e-05 -8.59317e-06 
-1.175e-05 -1.175e-05 -8.58976e-06 
-1.15e-05 -1.175e-05 -8.58819e-06 
-1.125e-05 -1.175e-05 -8.58873e-06 
-1.1e-05 -1.175e-05 -8.59249e-06 
-1.075e-05 -1.175e-05 -8.58578e-06 
-1.05e-05 -1.175e-05 -8.5838e-06 
-1.025e-05 -1.175e-05 -8.58629e-06 
-1e-05 -1.175e-05 -8.58697e-06 
-9.75e-06 -1.175e-05 -8.58721e-06 
-9.5e-06 -1.175e-05 -8.59504e-06 
-9.25e-06 -1.175e-05 -8.58849e-06 
-9e-06 -1.175e-05 -8.59032e-06 
-8.75e-06 -1.175e-05 -8.58258e-06 
-8.5e-06 -1.175e-05 -8.58554e-06 
-8.25e-06 -1.175e-05 -8.58294e-06 
-8e-06 -1.175e-05 -8.58642e-06 
-7.75e-06 -1.175e-05 -8.59114e-06 
-7.5e-06 -1.175e-05 -8.59464e-06 
-7.25e-06 -1.175e-05 -8.58611e-06 
-7e-06 -1.175e-05 -8.58728e-06 
-6.75e-06 -1.175e-05 -8.58451e-06 
-6.5e-06 -1.175e-05 -8.59014e-06 
-6.25e-06 -1.175e-05 -8.59789e-06 
-6e-06 -1.175e-05 -8.588e-06 
-5.75e-06 -1.175e-05 -8.59118e-06 
-5.5e-06 -1.175e-05 -8.58761e-06 
-5.25e-06 -1.175e-05 -8.58631e-06 
-5e-06 -1.175e-05 -8.58556e-06 
-4.75e-06 -1.175e-05 -8.58709e-06 
-4.5e-06 -1.175e-05 -8.58625e-06 
-4.25e-06 -1.175e-05 -8.58255e-06 
-4e-06 -1.175e-05 -8.59198e-06 
-3.75e-06 -1.175e-05 -8.58874e-06 
-3.5e-06 -1.175e-05 -8.59522e-06 
-3.25e-06 -1.175e-05 -8.59341e-06 
-3e-06 -1.175e-05 -8.5846e-06 
-2.75e-06 -1.175e-05 -8.58681e-06 
-2.5e-06 -1.175e-05 -8.58827e-06 
-2.25e-06 -1.175e-05 -8.58755e-06 
-2e-06 -1.175e-05 -8.60137e-06 
-1.75e-06 -1.175e-05 -8.58983e-06 
-1.5e-06 -1.175e-05 -8.58661e-06 
-1.25e-06 -1.175e-05 -8.59204e-06 
-1e-06 -1.175e-05 -8.58208e-06 
-7.5e-07 -1.175e-05 -8.58325e-06 
-5e-07 -1.175e-05 -8.584e-06 
-2.5e-07 -1.175e-05 -8.5929e-06 
0 -1.175e-05 -8.58788e-06 
2.5e-07 -1.175e-05 -8.59534e-06 
5e-07 -1.175e-05 -8.59185e-06 
7.5e-07 -1.175e-05 -8.58731e-06 
1e-06 -1.175e-05 -8.59536e-06 
1.25e-06 -1.175e-05 -8.58482e-06 
1.5e-06 -1.175e-05 -8.58339e-06 
1.75e-06 -1.175e-05 -8.5836e-06 
2e-06 -1.175e-05 -8.59079e-06 
2.25e-06 -1.175e-05 -8.58865e-06 
2.5e-06 -1.175e-05 -8.59222e-06 
2.75e-06 -1.175e-05 -8.58868e-06 
3e-06 -1.175e-05 -8.58382e-06 
3.25e-06 -1.175e-05 -8.59334e-06 
3.5e-06 -1.175e-05 -8.59182e-06 
3.75e-06 -1.175e-05 -8.59196e-06 
4e-06 -1.175e-05 -8.59318e-06 
4.25e-06 -1.175e-05 -8.58702e-06 
4.5e-06 -1.175e-05 -8.58181e-06 
4.75e-06 -1.175e-05 -8.59772e-06 
5e-06 -1.175e-05 -8.59141e-06 
5.25e-06 -1.175e-05 -8.58784e-06 
5.5e-06 -1.175e-05 -8.58452e-06 
5.75e-06 -1.175e-05 -8.58858e-06 
6e-06 -1.175e-05 -8.59438e-06 
6.25e-06 -1.175e-05 -8.59315e-06 
6.5e-06 -1.175e-05 -8.5849e-06 
6.75e-06 -1.175e-05 -8.59019e-06 
7e-06 -1.175e-05 -8.59055e-06 
7.25e-06 -1.175e-05 -8.58831e-06 
7.5e-06 -1.175e-05 -8.58928e-06 
7.75e-06 -1.175e-05 -8.59154e-06 
8e-06 -1.175e-05 -8.59034e-06 
8.25e-06 -1.175e-05 -8.59996e-06 
8.5e-06 -1.175e-05 -8.59209e-06 
8.75e-06 -1.175e-05 -8.59008e-06 
9e-06 -1.175e-05 -8.58545e-06 
9.25e-06 -1.175e-05 -8.59573e-06 
9.5e-06 -1.175e-05 -8.58697e-06 
9.75e-06 -1.175e-05 -8.59223e-06 
1e-05 -1.175e-05 -8.5908e-06 
1.025e-05 -1.175e-05 -8.59164e-06 
1.05e-05 -1.175e-05 -8.58746e-06 
1.075e-05 -1.175e-05 -8.5915e-06 
1.1e-05 -1.175e-05 -8.59331e-06 
1.125e-05 -1.175e-05 -8.58969e-06 
1.15e-05 -1.175e-05 -8.58852e-06 
1.175e-05 -1.175e-05 -8.58969e-06 
1.2e-05 -1.175e-05 -8.58874e-06 
1.225e-05 -1.175e-05 -8.59317e-06 
-1.2e-05 -1.15e-05 -8.5964e-06 
-1.225e-05 -1.15e-05 -8.59363e-06 
-1.175e-05 -1.15e-05 -8.59041e-06 
-1.15e-05 -1.15e-05 -8.58854e-06 
[...]
POINT_DATA 14545
SCALARS Velocities float 1
LOOKUP_TABLE default
-3.24594e-06
-3.37058e-06
-3.34057e-06
-3.41432e-06
-3.35684e-06
-3.51243e-06
-3.42694e-06
-3.25814e-06
-3.62948e-06
-3.54654e-06
-3.58634e-06
-3.54856e-06
-3.57862e-06
-3.598e-06
-3.63149e-06
-3.5051e-06
-3.51811e-06
-3.4656e-06
-3.54614e-06
-3.51456e-06
-3.46321e-06
-3.51231e-06
-3.55041e-06
-3.46943e-06
-3.37478e-06
-3.48572e-06
-3.40437e-06
-3.29807e-06
-3.37989e-06
-3.48716e-06
-3.55111e-06
-3.53657e-06
-3.42458e-06
-3.44995e-06
-3.48807e-06
-3.45937e-06
-3.42971e-06
-3.57435e-06
-3.34021e-06
-3.46598e-06
-3.33916e-06
-3.30325e-06
-3.43971e-06
-3.47711e-06
-3.31035e-06
-3.5432e-06
-3.27644e-06
-3.45866e-06
-3.40717e-06
-3.50059e-06
-3.32715e-06
-3.36224e-06
-3.2405e-06
-3.3305e-06
-3.51221e-06
-3.34172e-06
-3.64284e-06
-3.51513e-06
-3.33792e-06
-3.41183e-06
-3.38576e-06
-3.536e-06
-3.52969e-06
-3.49259e-06
-3.4573e-06
-3.38217e-06
-3.60534e-06
-3.53429e-06
-3.53476e-06
-3.47841e-06
-3.37789e-06
-3.21327e-06
-3.30589e-06
-3.48353e-06
-3.27579e-06
-3.44265e-06
-3.53826e-06
-3.34682e-06
-3.41018e-06
-3.46371e-06
-3.48299e-06
-3.60949e-06
-3.39735e-06
-3.49727e-06
-3.54806e-06
-3.3808e-06
-3.71446e-06
-3.43688e-06
-3.22415e-06
-3.63042e-06
-3.35725e-06
-3.68125e-06
-3.46888e-06
-3.46171e-06
-3.46081e-06
-3.51635e-06
-3.43329e-06
-3.44932e-06
-3.33827e-06
-3.37069e-06
-3.41954e-06
-3.5688e-06
-3.45122e-06
-3.34061e-06
-3.285e-06
-3.11923e-06
-3.48162e-06
-3.32819e-06
-3.45255e-06
-3.59035e-06
-3.46531e-06
-3.42373e-06
-3.4385e-06
-3.3046e-06
-3.35271e-06
-3.479e-06
-3.23617e-06
-3.42616e-06
-3.50903e-06
-3.45343e-06
-3.46181e-06
-3.46811e-06
-3.53189e-06
-3.62563e-06
-3.4666e-06
-3.41816e-06
-3.57025e-06
-3.42561e-06
-3.42658e-06
-3.50344e-06
-3.64721e-06
-3.59054e-06
-3.66156e-06
-3.3973e-06
-3.50158e-06
-3.3102e-06
-3.45166e-06
-3.46499e-06
-3.29485e-06
-3.54981e-06
-3.35206e-06
-3.37326e-06
-3.34703e-06
-3.53021e-06
-3.44577e-06
-3.42759e-06
-3.4367e-06
-3.41836e-06
-3.50782e-06
-3.48873e-06
-3.41754e-06
-3.38474e-06
-3.33338e-06
-3.41537e-06
-3.52145e-06
-3.40347e-06
-3.56821e-06
-3.31108e-06
-3.41214e-06
-3.36321e-06
-3.44959e-06
-3.31437e-06
-3.43968e-06
-3.47308e-06
-3.42019e-06
-3.5992e-06
-3.43325e-06
-3.4796e-06
-3.31573e-06
-3.46785e-06
-3.73723e-06
-3.27188e-06
-3.42307e-06
-3.27281e-06
-3.57974e-06
-3.40034e-06
-3.48927e-06
-3.23346e-06
-3.46829e-06
-3.41849e-06
-3.27021e-06
-3.25969e-06
-3.27775e-06
-3.15977e-06
-3.34821e-06
-3.27672e-06
-3.63141e-06
-3.50641e-06
-3.57543e-06
-3.47564e-06
-3.55133e-06
-3.51201e-06
-3.43655e-06
-3.40871e-06
-3.32013e-06
-3.49863e-06
-3.34057e-06
-3.41432e-06
-3.30911e-06
-3.224e-06
-3.38572e-06
-3.51443e-06
-3.36629e-06
-3.40494e-06
-3.68041e-06
-3.33636e-06
-3.42333e-06
-3.52574e-06
-3.52544e-06
-3.49605e-06
-3.54562e-06
-3.29498e-06
-3.42795e-06
-3.60594e-06
-3.569e-06
-3.43104e-06
-3.55717e-06
-3.51302e-06
-3.44397e-06
-3.41343e-06
-3.65077e-06
-3.60675e-06
-3.66743e-06
-3.55061e-06
-3.38735e-06
-3.4635e-06
-3.41897e-06
-3.54722e-06
-3.46269e-06
-3.32742e-06
-3.48613e-06
-3.52872e-06
-3.58513e-06
-3.57263e-06
-3.5039e-06
-3.2045e-06
-3.20596e-06
-3.50908e-06
-3.34679e-06
-3.46388e-06
-3.42992e-06
-3.31704e-06
-3.27409e-06
-3.25602e-06
-3.451e-06
-3.63593e-06
-3.6078e-06
-3.36238e-06
-3.4164e-06
-3.38668e-06
-3.46419e-06
-3.5728e-06
-3.40879e-06
-3.28669e-06
-3.29325e-06
-3.56583e-06
-3.45403e-06
-3.50915e-06
-3.36903e-06
-3.40788e-06
-3.34428e-06
-3.42165e-06
-3.33641e-06
-3.31792e-06
-3.55024e-06
-3.47796e-06
-3.54065e-06
-3.58271e-06
-3.39855e-06
-3.5903e-06
-3.49336e-06
-3.53077e-06
-3.56098e-06
-3.4902e-06
-3.57827e-06
-3.40242e-06
-3.30401e-06
-3.51594e-06
-3.4782e-06
-3.5342e-06
-3.65215e-06
-3.48086e-06
-3.50934e-06
-3.42332e-06
-3.43395e-06
-3.18555e-06
-3.29036e-06
-3.51897e-06
-3.39251e-06
-3.41612e-06
-3.37055e-06
-3.63822e-06
-3.38808e-06
-3.47106e-06
-3.41887e-06
-3.41205e-06
-3.224e-06
-3.19435e-06
-3.2102e-06
-3.58876e-06
-3.51403e-06
-3.47124e-06
-3.50889e-06
-3.53724e-06
-3.35657e-06
-3.2956e-06
-3.2354e-06
-3.41553e-06
-3.36533e-06
-3.43115e-06
-3.41557e-06
-3.19656e-06
-3.51311e-06
-3.45539e-06
-3.45594e-06
-3.58401e-06
-3.44526e-06
-3.42652e-06
-3.53307e-06
-3.56651e-06
-3.54807e-06
-3.54426e-06
-3.4107e-06
-3.27188e-06
-3.46968e-06
-3.55773e-06
-3.58215e-06
-3.44857e-06
-3.39907e-06
-3.38047e-06
-3.43839e-06
-3.56598e-06
-3.54681e-06
-3.42912e-06
-3.41714e-06
-3.55399e-06
-3.54648e-06
-3.26074e-06
-3.54873e-06
-3.48279e-06
-3.65631e-06
-3.25813e-06
-3.24863e-06
-3.43465e-06
-3.50161e-06
-3.46718e-06
-3.29228e-06
-3.42859e-06
-3.61928e-06
-3.51765e-06
-3.47224e-06
-3.26857e-06
-3.27177e-06
-3.42947e-06
-3.43821e-06
-3.47748e-06
-3.33715e-06
-3.3949e-06
-3.65169e-06
-3.50863e-06
-3.53995e-06
-3.67308e-06
-3.53882e-06
-3.45984e-06
-3.4032e-06
-3.35416e-06
-3.67364e-06
-3.67002e-06
-3.51589e-06
-3.44957e-06
-3.34884e-06
-3.41363e-06
-3.60373e-06
-3.60516e-06
-3.45026e-06
-3.44714e-06
-3.30438e-06
-3.49138e-06
-3.54741e-06
-3.46267e-06
-3.3526e-06
-3.3465e-06
-3.37281e-06
-3.45706e-06
-3.46803e-06
-3.48183e-06
-3.56016e-06
-3.60985e-06
-3.33895e-06
-3.39489e-06
-3.6492e-06
-3.3357e-06
-3.33702e-06
-3.37798e-06
-3.44505e-06
-3.2102e-06
-3.49893e-06
-3.32993e-06
-3.61113e-06
-3.37064e-06
-3.41196e-06
-3.39753e-06
-3.34331e-06
-3.40499e-06
-3.41029e-06
-3.45039e-06
-3.49821e-06
-3.51365e-06
-3.60706e-06
-3.48562e-06
-3.51035e-06
-3.29992e-06
-3.63746e-06
-3.54129e-06
-3.46298e-06
-3.36175e-06
-3.42788e-06
-3.57387e-06
-3.61722e-06
-3.47348e-06
-3.38099e-06
-3.26604e-06
-3.32713e-06
-3.36278e-06
-3.28049e-06
-3.55558e-06
-3.3793e-06
-3.21942e-06
-3.35105e-06
-3.51394e-06
-3.37688e-06
-3.32661e-06
-3.54869e-06
-3.43495e-06
-3.4064e-06
-3.4807e-06
-3.39991e-06
-3.50868e-06
-3.52463e-06
-3.51108e-06
-3.44882e-06
-3.61456e-06
-3.33461e-06
-3.37525e-06
-3.40891e-06
-3.36088e-06
-3.51563e-06
-3.43485e-06
-3.20885e-06
-3.5059e-06
-3.50336e-06
-3.52736e-06
-3.44287e-06
-3.49884e-06
-3.33865e-06
-3.3053e-06
-3.40112e-06
-3.47203e-06
-3.44014e-06
-3.57133e-06
-3.52097e-06
-3.45602e-06
-3.37935e-06
-3.51742e-06
-3.19349e-06
-3.31719e-06
-3.36246e-06
-3.42034e-06
-3.57149e-06
-3.47034e-06
-3.643e-06
-3.54493e-06
-3.60514e-06
-3.35452e-06
-3.41623e-06
-3.39883e-06
-3.69827e-06
-3.73657e-06
-3.58954e-06
-3.58628e-06
-3.59901e-06
-3.64642e-06
-3.47591e-06
-3.2076e-06
-3.39112e-06
-3.42839e-06
-3.54929e-06
-3.2672e-06
-3.36954e-06
-3.4447e-06
-3.37172e-06
-3.18176e-06
-3.42429e-06
-3.29154e-06
-3.32993e-06
-3.51813e-06
-3.48901e-06
-3.65639e-06
-3.38073e-06
-3.32823e-06
-3.40029e-06
-3.76079e-06
-3.54696e-06
-3.42642e-06
-3.48041e-06
-3.31982e-06
-3.46773e-06
-3.59291e-06
-3.35198e-06
-3.30382e-06
-3.48799e-06
-3.47972e-06
-3.52444e-06
-3.56011e-06
-3.34705e-06
-3.30617e-06
-3.34584e-06
-3.50332e-06
-3.57861e-06
-3.27772e-06
-3.44154e-06
-3.19183e-06
-3.23954e-06
-3.33896e-06
-3.59568e-06
-3.52515e-06
-3.35754e-06
-3.64393e-06
-3.55013e-06
-3.49906e-06
-3.37767e-06
-3.44159e-06
-3.41982e-06
-3.39029e-06
-3.53106e-06
-3.40328e-06
-3.41351e-06
-3.50098e-06
-3.48507e-06
-3.55867e-06
-3.44844e-06
-3.36727e-06
-3.45226e-06
-3.23762e-06
-3.37544e-06
-3.53448e-06
-3.47382e-06
-3.21789e-06
-3.27795e-06
-3.46417e-06
-3.45521e-06
-3.57649e-06
-3.43404e-06
-3.40384e-06
-3.54447e-06
-3.62108e-06
-3.41754e-06
-3.32849e-06
-3.36762e-06
-3.52198e-06
-3.33791e-06
-3.36713e-06
-3.50139e-06
-3.34833e-06
-3.37309e-06
-3.16987e-06
-3.35492e-06
-3.38946e-06
-3.5019e-06
-3.5967e-06
-3.61131e-06
-3.54652e-06
-3.2735e-06
-3.52164e-06
-3.55028e-06
-3.56918e-06
-3.57434e-06
-3.3552e-06
-3.48688e-06
-3.2687e-06
-3.48179e-06
-3.43584e-06
-3.4049e-06
-3.47647e-06
-3.52737e-06
-3.57936e-06
-3.50756e-06
-3.39344e-06
-3.45137e-06
-3.36702e-06
-3.27467e-06
-3.33678e-06
-3.46355e-06
-3.48901e-06
-3.46264e-06
-3.75578e-06
-3.20466e-06
-3.40831e-06
-3.43627e-06
-3.50004e-06
-3.55847e-06
-3.71325e-06
-3.43568e-06
-3.50939e-06
-3.23414e-06
-3.48998e-06
-3.58951e-06
-3.43856e-06
-3.41382e-06
-3.50099e-06
-3.39792e-06
-3.51828e-06
-3.39197e-06
-3.35518e-06
-3.56122e-06
-3.54378e-06
-3.47604e-06
-3.39115e-06
-3.30678e-06
-3.4393e-06
-3.26685e-06
-3.40789e-06
-3.63004e-06
-3.56134e-06
-3.34206e-06
-3.53348e-06
-3.43257e-06
-3.29268e-06
-3.50191e-06
-3.38704e-06
-3.43241e-06
-3.36003e-06
-3.49366e-06
-3.54617e-06
-3.38291e-06
-3.40512e-06
-3.46904e-06
-3.36546e-06
-3.67569e-06
-3.41904e-06
-3.52463e-06
-3.67943e-06
-3.43728e-06
-3.43014e-06
-3.58269e-06
-3.50327e-06
-3.38959e-06
-3.27864e-06
-3.13478e-06
-3.51525e-06
-3.37044e-06
-3.31619e-06
-3.27325e-06
-3.45978e-06
-3.47131e-06
-3.47162e-06
-3.26988e-06
-3.26676e-06
-3.42741e-06
-3.35454e-06
-3.42457e-06
-3.34848e-06
-3.38092e-06
-3.39987e-06
-3.35147e-06
-3.42621e-06
-3.38803e-06
-3.34946e-06
-3.18319e-06
-3.32258e-06
-3.48114e-06
-3.41062e-06
-3.36957e-06
-3.2614e-06
-3.37296e-06
-3.58314e-06
-3.55916e-06
-3.44153e-06
-3.21444e-06
-3.34137e-06
-3.25265e-06
-3.41435e-06
-3.35689e-06
-3.31738e-06
-3.54473e-06
-3.28693e-06
-3.42471e-06
-3.41976e-06
-3.24717e-06
-3.43269e-06
-3.28325e-06
-3.41862e-06
-3.75578e-06
-3.54138e-06
-3.2947e-06
-3.29329e-06
-3.31736e-06
-3.35517e-06
-3.31458e-06
-3.42899e-06
-3.76589e-06
-3.44272e-06
-3.40401e-06
-3.38907e-06
-3.54486e-06
-3.55009e-06
-3.53041e-06
-3.42719e-06
-3.55859e-06
-3.39738e-06
-3.60004e-06
-3.57645e-06
-3.43342e-06
-3.63133e-06
-3.63589e-06
-3.65541e-06
-3.48331e-06
-3.47219e-06
-3.56433e-06
-3.40253e-06
-3.39131e-06
-3.27713e-06
-3.38433e-06
-3.45927e-06
-3.4493e-06
-3.56041e-06
-3.61652e-06
-3.4151e-06
-3.49111e-06
-3.55931e-06
-3.50992e-06
-3.55995e-06
-3.39053e-06
-3.30172e-06
-3.20055e-06
-3.4038e-06
-3.39989e-06
-3.59788e-06
-3.4397e-06
-3.42119e-06
-3.54756e-06
-3.67196e-06
-3.65837e-06
-3.57228e-06
-3.47032e-06
-3.51473e-06
-3.71623e-06
-3.28491e-06
-3.37013e-06
-3.32862e-06
-3.3422e-06
-3.31313e-06
-3.08702e-06
-3.47438e-06
-3.63632e-06
-3.4405e-06
-3.62712e-06
-3.45979e-06
-3.42669e-06
-3.39706e-06
-3.34395e-06
-3.39198e-06
-3.39992e-06
-3.48759e-06
-3.56377e-06
-3.62026e-06
-3.47273e-06
-3.24179e-06
-3.33355e-06
-3.50134e-06
-3.55563e-06
-3.5312e-06
-3.30267e-06
-3.20811e-06
-3.38489e-06
-3.40784e-06
-3.36698e-06
-3.32856e-06
-3.41784e-06
-3.43701e-06
-3.31975e-06
-3.379e-06
-3.34065e-06
-3.47467e-06
-3.31037e-06
-3.5317e-06
-3.40443e-06
-3.31563e-06
-3.67835e-06
-3.45179e-06
-3.39124e-06
-3.2947e-06
-3.52151e-06
-3.27341e-06
-3.45479e-06
-3.30865e-06
-3.44757e-06
-3.46435e-06
-3.54161e-06
-3.68989e-06
-3.59641e-06
-3.33933e-06
-3.33603e-06
-3.42447e-06
-3.4847e-06
-3.42697e-06
-3.41409e-06
-3.40497e-06
-3.42927e-06
-3.14539e-06
-3.4707e-06
-3.38658e-06
-3.45015e-06
-3.53036e-06
-3.57485e-06
-3.38921e-06
-3.37265e-06
-3.55631e-06
-3.49548e-06
-3.36056e-06
-3.27346e-06
-3.35408e-06
-3.28373e-06
-3.45447e-06
-3.48474e-06
-3.39987e-06
-3.40748e-06
-3.51374e-06
-3.52485e-06
-3.32744e-06
-3.32905e-06
-3.33145e-06
-3.57673e-06
-3.4668e-06
-3.65537e-06
-3.6346e-06
-3.29594e-06
-3.34593e-06
-3.51402e-06
-3.27651e-06
-3.43534e-06
-3.552e-06
-3.3466e-06
-3.51076e-06
-3.36036e-06
-3.61085e-06
-3.37606e-06
-3.36221e-06
-3.5467e-06
-3.57462e-06
-3.46757e-06
-3.44735e-06
-3.29724e-06
-3.56729e-06
-3.70716e-06
-3.39591e-06
-3.5299e-06
-3.44499e-06
-3.37305e-06
-3.37632e-06
-3.46337e-06
-3.22797e-06
-3.39846e-06
-3.53729e-06
-3.42541e-06
-3.68063e-06
-3.57767e-06
-3.41722e-06
-3.41023e-06
-3.35523e-06
-3.49241e-06
-3.47808e-06
-3.4218e-06
-3.25498e-06
-3.41182e-06
-3.63457e-06
-3.22991e-06
-3.39107e-06
-3.54118e-06
-3.25072e-06
-3.2095e-06
-3.55644e-06
-3.39358e-06
-3.371e-06
-3.41297e-06
-3.31077e-06
-3.19539e-06
-3.36096e-06
-3.4175e-06
-3.58041e-06
-3.27341e-06
-3.53294e-06
-3.61942e-06
-3.54196e-06
-3.56044e-06
-3.51664e-06
-3.29999e-06
-3.49653e-06
-3.78751e-06
-3.5453e-06
-3.50232e-06
-3.30002e-06
-3.56743e-06
-3.62834e-06
-3.27857e-06
-3.36526e-06
-3.34283e-06
-3.6188e-06
-3.1386e-06
-3.31848e-06
-3.39564e-06
-3.45289e-06
-3.32355e-06
-3.5105e-06
-3.6495e-06
-3.7758e-06
-3.64076e-06
-3.52215e-06
-3.48614e-06
-3.31967e-06
-3.34659e-06
-3.44272e-06
-3.62118e-06
-3.40548e-06
-3.30353e-06
-3.64118e-06
-3.65983e-06
-3.49774e-06
-3.43652e-06
-3.46862e-06
-3.32609e-06
-3.63344e-06
-3.41324e-06
-3.34637e-06
-3.53272e-06
-3.17221e-06
-3.37267e-06
-3.69346e-06
-3.54728e-06
-3.50133e-06
-3.60214e-06
-3.36725e-06
-3.51521e-06
-3.47743e-06
-3.51546e-06
-3.61877e-06
-3.43145e-06
-3.46676e-06
-3.36028e-06
-3.53229e-06
-3.57365e-06
-3.27422e-06
-3.42584e-06
-3.37031e-06
-3.29476e-06
-3.62837e-06
-3.38474e-06
-3.33559e-06
-3.60876e-06
-3.36525e-06
-3.3311e-06
-3.47719e-06
-3.43364e-06
-3.40613e-06
-3.64546e-06
-3.40899e-06
-3.45632e-06
-3.40763e-06
-3.58274e-06
-3.65057e-06
-3.52471e-06
-3.58442e-06
-3.63381e-06
-3.30176e-06
-3.49901e-06
-3.35651e-06
-3.39433e-06
-3.56067e-06
-3.3003e-06
-3.7385e-06
-3.59849e-06
-3.25383e-06
-3.48401e-06
-3.53937e-06
-3.57407e-06
-3.50939e-06
-3.40638e-06
-3.11426e-06
-3.42883e-06
-3.61942e-06
-3.51888e-06
-3.48717e-06
-3.5017e-06
-3.45005e-06
-3.51416e-06
-3.32336e-06
-3.38286e-06
-3.50271e-06
-3.57322e-06
-3.48102e-06
-3.34199e-06
-3.49891e-06
-3.62724e-06
-3.47281e-06
-3.4734e-06
-3.60201e-06
-3.55059e-06
-3.52272e-06
-3.57522e-06
-3.59419e-06
-3.52699e-06
-3.63193e-06
-3.62978e-06
-3.41669e-06
-3.50472e-06
-3.33607e-06
-3.49814e-06
-3.26265e-06
-3.4381e-06
-3.56513e-06
-3.56437e-06
-3.40007e-06
-3.28439e-06
-3.23341e-06
-3.41081e-06
-3.3981e-06
-3.23747e-06
-3.38752e-06
-3.15055e-06
-3.29321e-06
-3.63606e-06
-3.62983e-06
-3.41606e-06
-3.57749e-06
-3.44333e-06
-3.37933e-06
-3.54974e-06
-3.3809e-06
-3.47228e-06
-3.4412e-06
-3.41775e-06
-3.62751e-06
-3.41547e-06
-3.56688e-06
-3.65759e-06
-3.44084e-06
-3.35446e-06
-3.23089e-06
-3.50586e-06
-3.23808e-06
-3.35896e-06
-3.22295e-06
-3.40002e-06
-3.46739e-06
-3.45206e-06
-3.32081e-06
-3.48799e-06
-3.47548e-06
-3.30187e-06
-3.49501e-06
-3.31418e-06
-3.23588e-06
-3.30597e-06
-3.52276e-06
-3.54599e-06
-3.30044e-06
-3.37168e-06
-3.24746e-06
-3.33337e-06
-3.4582e-06
-3.31897e-06
-3.22926e-06
-3.16656e-06
-3.5239e-06
-3.49695e-06
-3.24874e-06
-3.53723e-06
-3.31052e-06
-3.56891e-06
-3.73582e-06
-3.4108e-06
-3.34488e-06
-3.5242e-06
-3.32961e-06
-3.42365e-06
-3.23275e-06
-3.24684e-06
-3.414e-06
-3.48717e-06
-3.5173e-06
-3.51265e-06
-3.58377e-06
-3.50294e-06
-3.38068e-06
-3.24411e-06
-3.44696e-06
-3.56731e-06
-3.43825e-06
-3.34298e-06
-3.39185e-06
-3.59615e-06
-3.57953e-06
-3.47456e-06
-3.49678e-06
-3.35087e-06
-3.54368e-06
-3.43672e-06
-3.4041e-06
-3.51611e-06
-3.46284e-06
-3.51457e-06
-3.45275e-06
-3.3308e-06
-3.55178e-06
-3.30344e-06
-3.53204e-06
-3.37453e-06
-3.57669e-06
-3.49276e-06
-3.54515e-06
-3.40791e-06
-3.28298e-06
-3.47795e-06
-3.45447e-06
-3.19985e-06
-3.33921e-06
-3.39541e-06
-3.11773e-06
-3.40538e-06
-3.41695e-06
-3.43829e-06
-3.43887e-06
-3.48202e-06
-3.45461e-06
-3.39625e-06
-3.52707e-06
-3.54893e-06
-3.47867e-06
-3.29736e-06
-3.29944e-06
-3.46856e-06
-3.40173e-06
-3.45815e-06
-3.16669e-06
-3.44613e-06
-3.58161e-06
-3.33082e-06
-3.34744e-06
-3.43844e-06
-3.36671e-06
-3.24449e-06
-3.52968e-06
-3.52776e-06
-3.3626e-06
-3.24735e-06
-3.29031e-06
-3.14983e-06
-3.37744e-06
-3.50444e-06
-3.32614e-06
-3.3601e-06
-3.4194e-06
-3.66316e-06
-3.74991e-06
-3.63675e-06
-3.30576e-06
-3.4066e-06
-3.27801e-06
-3.40861e-06
-3.37198e-06
-3.24417e-06
-3.2241e-06
-3.40503e-06
-3.56493e-06
-3.39501e-06
-3.35825e-06
-3.42271e-06
-3.36883e-06
-3.48005e-06
-3.43433e-06
-3.29731e-06
-3.33856e-06
-3.34007e-06
-3.41415e-06
-3.2473e-06
-3.39842e-06
-3.36827e-06
-3.51265e-06
-3.68416e-06
-3.29694e-06
-3.55059e-06
-3.46822e-06
-3.37279e-06
-3.14769e-06
-3.7168e-06
-3.75685e-06
-3.55368e-06
-3.38612e-06
-3.3889e-06
-3.51234e-06
-3.40207e-06
-3.3159e-06
-3.45871e-06
-3.29067e-06
-3.58154e-06
-3.386e-06
-3.33254e-06
-3.53253e-06
-3.61323e-06
-3.48584e-06
-3.39703e-06
-3.22653e-06
-3.51718e-06
-3.51798e-06
-3.5104e-06
-3.44505e-06
-3.68648e-06
-3.44468e-06
-3.47632e-06
-3.29726e-06
-3.34613e-06
-3.3845e-06
-3.36442e-06
-3.29139e-06
-3.47718e-06
-3.41564e-06
-3.42936e-06
-3.47116e-06
-3.37387e-06
-3.57748e-06
-3.36161e-06
-3.36751e-06
-3.62825e-06
-3.53001e-06
-3.50449e-06
-3.5353e-06
-3.44985e-06
-3.54091e-06
-3.45079e-06
-3.58552e-06
-3.45966e-06
-3.37188e-06
-3.30251e-06
-3.31552e-06
-3.52051e-06
-3.51386e-06
-3.46954e-06
-3.42104e-06
-3.39841e-06
-3.49413e-06
-3.51568e-06
-3.53873e-06
-3.40483e-06
-3.36412e-06
-3.47035e-06
-3.4317e-06
-3.40267e-06
-3.34649e-06
-3.26214e-06
-3.22927e-06
-3.45713e-06
-3.57647e-06
-3.50754e-06
-3.5251e-06
-3.36852e-06
-3.66476e-06
-3.55541e-06
-3.51929e-06
-3.54613e-06
-3.40222e-06
-3.39093e-06
-3.44059e-06
-3.47297e-06
-3.64096e-06
-3.5659e-06
-3.54693e-06
-3.34509e-06
-3.45728e-06
-3.377e-06
-3.41931e-06
-3.31915e-06
-3.25049e-06
-3.45895e-06
-3.47629e-06
-3.48626e-06
-3.44935e-06
-3.29694e-06
-3.64906e-06
-3.47395e-06
-3.47064e-06
-3.58945e-06
-3.34357e-06
-3.3369e-06
-3.23707e-06
-3.41937e-06
-3.534e-06
-3.45554e-06
-3.42812e-06
-3.47312e-06
-3.42731e-06
-3.23899e-06
-3.30452e-06
-3.34608e-06
-3.4083e-06
-3.33317e-06
-3.40287e-06
-3.51894e-06
-3.48453e-06
-3.63711e-06
-3.21649e-06
-3.04954e-06
-3.4011e-06
-3.3914e-06
-3.20189e-06
-3.44657e-06
-3.61472e-06
-3.46778e-06
-3.34716e-06
-3.4221e-06
-3.51112e-06
-3.4263e-06
-3.48587e-06
-3.79775e-06
-3.80374e-06
-3.34473e-06
-3.45069e-06
-3.39235e-06
-3.52424e-06
-3.50278e-06
-3.271e-06
-3.55929e-06
-3.6018e-06
-3.56137e-06
-3.63799e-06
-3.40995e-06
-3.42115e-06
-3.45081e-06
-3.54747e-06
-3.53726e-06
-3.4014e-06
-3.70434e-06
-3.33405e-06
-3.45491e-06
-3.56193e-06
-3.63619e-06
-3.57967e-06
-3.32577e-06
-3.50562e-06
-3.35363e-06
-3.30945e-06
-3.41377e-06
-3.3421e-06
-3.37458e-06
-3.72124e-06
-3.52014e-06
-3.37467e-06
-3.30774e-06
-3.31442e-06
-3.53945e-06
-3.48923e-06
-3.7031e-06
-3.38803e-06
-3.18174e-06
-3.32584e-06
-3.39511e-06
-3.4281e-06
-3.30228e-06
-3.33698e-06
-3.44671e-06
-3.61964e-06
-3.61028e-06
-3.67111e-06
-3.36086e-06
-3.17773e-06
-3.38721e-06
-3.09305e-06
-3.39234e-06
-3.41712e-06
-3.44011e-06
-3.43284e-06
-3.59617e-06
-3.38135e-06
-3.59662e-06
-3.66963e-06
-3.61564e-06
-3.47395e-06
-3.50503e-06
-3.40206e-06
-3.3905e-06
-3.41113e-06
-3.25582e-06
-3.49667e-06
-3.22672e-06
-3.39314e-06
-3.62733e-06
-3.67859e-06
-3.60036e-06
-3.50793e-06
-3.46447e-06
-3.37306e-06
-3.49802e-06
-3.55686e-06
-3.47412e-06
-3.47984e-06
-3.47744e-06
-3.4652e-06
-3.49077e-06
-3.40286e-06
-3.34177e-06
-3.40925e-06
-3.64045e-06
-3.51001e-06
-3.25956e-06
-3.49665e-06
-3.4218e-06
-3.45287e-06
-3.23478e-06
-3.46571e-06
-3.42003e-06
-3.33023e-06
-3.46132e-06
-3.64307e-06
-3.52172e-06
-3.43919e-06
-3.54713e-06
-3.31866e-06
-3.59665e-06
-3.61572e-06
-3.31136e-06
-3.41776e-06
-3.20132e-06
-3.38657e-06
-3.63551e-06
-3.61936e-06
-3.74036e-06
-3.38289e-06
-3.18867e-06
-3.3758e-06
-3.43404e-06
-3.48464e-06
-3.50892e-06
-3.53593e-06
-3.47792e-06
-3.38182e-06
-3.571e-06
-3.47776e-06
-3.71055e-06
-3.41012e-06
-3.28411e-06
-3.37504e-06
-3.43473e-06
-3.60267e-06
-3.53171e-06
-3.62362e-06
-3.60038e-06
-3.46627e-06
-3.56825e-06
-3.64148e-06
-3.53835e-06
-3.48287e-06
-3.25681e-06
-3.30492e-06
-3.34627e-06
-3.44649e-06
-3.34312e-06
-3.25643e-06
-3.24405e-06
-3.45733e-06
-3.4312e-06
-3.47574e-06
-3.67765e-06
-3.48196e-06
-3.27806e-06
-3.36704e-06
-3.32743e-06
-3.36917e-06
-3.47649e-06
-3.61658e-06
-3.51797e-06
-3.46717e-06
-3.46054e-06
-3.39193e-06
-3.37335e-06
-3.27658e-06
-3.40206e-06
-3.28259e-06
-3.37299e-06
-3.4489e-06
-3.67339e-06
-3.67654e-06
-3.53352e-06
-3.48186e-06
-3.44332e-06
-3.43539e-06
-3.54889e-06
-3.36641e-06
-3.38235e-06
-3.42572e-06
-3.42783e-06
-3.34122e-06
-3.30832e-06
-3.38417e-06
-3.52578e-06
-3.4749e-06
-3.3922e-06
-3.47312e-06
-3.49776e-06
-3.48106e-06
-3.50925e-06
-3.45853e-06
-3.55897e-06
-3.41899e-06
-3.51583e-06
-3.43304e-06
-3.3626e-06
-3.35193e-06
-3.40199e-06
-3.42469e-06
-3.23003e-06
-3.48046e-06
-3.59027e-06
-3.51811e-06
-3.40832e-06
-3.55953e-06
-3.22924e-06
-3.57944e-06
-3.62495e-06
-3.45198e-06
-3.4956e-06
-3.37792e-06
-3.43524e-06
-3.46847e-06
-3.33506e-06
-3.40991e-06
-3.50371e-06
-3.4501e-06
-3.47261e-06
-3.46448e-06
-3.4192e-06
-3.38298e-06
-3.31371e-06
-3.42813e-06
-3.48736e-06
-3.28978e-06
-3.44447e-06
-3.54096e-06