# vtk DataFile Version 2.0
3D Surface
ASCII
DATASET UNSTRUCTURED_GRID
POINTS 15735 float
-1.2e-05 -1.225e-05 -1.11794e-05 
-1.2e-05 -1.2e-05 -1.11676e-05 
-1.225e-05 -1.225e-05 -1.11643e-05 
-1.225e-05 -1.2e-05 -1.11647e-05 
-1.175e-05 -1.225e-05 -1.1185e-05 
-1.175e-05 -1.2e-05 -1.11641e-05 
-1.15e-05 -1.225e-05 -1.11754e-05 
-1.15e-05 -1.2e-05 -1.1161e-05 
-1.125e-05 -1.225e-05 -1.11772e-05 
-1.125e-05 -1.2e-05 -1.11713e-05 
-1.1e-05 -1.225e-05 -1.11817e-05 
-1.1e-05 -1.2e-05 -1.11722e-05 
-1.075e-05 -1.225e-05 -1.11846e-05 
-1.075e-05 -1.2e-05 -1.11733e-05 
-1.05e-05 -1.225e-05 -1.11734e-05 
-1.05e-05 -1.2e-05 -1.11717e-05 
-1.025e-05 -1.225e-05 -1.11725e-05 
-1.025e-05 -1.2e-05 -1.11761e-05 
-1e-05 -1.225e-05 -1.11696e-05 
-1e-05 -1.2e-05 -1.1172e-05 
-9.75e-06 -1.225e-05 -1.11605e-05 
-9.75e-06 -1.2e-05 -1.11664e-05 
-9.5e-06 -1.225e-05 -1.1169e-05 
-9.5e-06 -1.2e-05 -1.11657e-05 
-9.25e-06 -1.225e-05 -1.11749e-05 
-9.25e-06 -1.2e-05 -1.11745e-05 
-9e-06 -1.225e-05 -1.11727e-05 
-9e-06 -1.2e-05 -1.11792e-05 
-8.75e-06 -1.225e-05 -1.11683e-05 
-8.75e-06 -1.2e-05 -1.11738e-05 
-8.5e-06 -1.225e-05 -1.11703e-05 
-8.5e-06 -1.2e-05 -1.11709e-05 
-8.25e-06 -1.225e-05 -1.11734e-05 
-8.25e-06 -1.2e-05 -1.11696e-05 
-8e-06 -1.225e-05 -1.11767e-05 
-8e-06 -1.2e-05 -1.11801e-05 
-7.75e-06 -1.225e-05 -1.11853e-05 
-7.75e-06 -1.2e-05 -1.11774e-05 
-7.5e-06 -1.225e-05 -1.11671e-05 
-7.5e-06 -1.2e-05 -1.11672e-05 
-7.25e-06 -1.225e-05 -1.11639e-05 
-7.25e-06 -1.2e-05 -1.11713e-05 
-7e-06 -1.225e-05 -1.11796e-05 
-7e-06 -1.2e-05 -1.11866e-05 
-6.75e-06 -1.225e-05 -1.11682e-05 
-6.75e-06 -1.2e-05 -1.11765e-05 
-6.5e-06 -1.225e-05 -1.11607e-05 
-6.5e-06 -1.2e-05 -1.11693e-05 
-6.25e-06 -1.225e-05 -1.11648e-05 
-6.25e-06 -1.2e-05 -1.11762e-05 
-6e-06 -1.225e-05 -1.11597e-05 
-6e-06 -1.2e-05 -1.11734e-05 
-5.75e-06 -1.225e-05 -1.11628e-05 
-5.75e-06 -1.2e-05 -1.11761e-05 
-5.5e-06 -1.225e-05 -1.11844e-05 
-5.5e-06 -1.2e-05 -1.11852e-05 
-5.25e-06 -1.225e-05 -1.11768e-05 
-5.25e-06 -1.2e-05 -1.11957e-05 
-5e-06 -1.225e-05 -1.11691e-05 
-5e-06 -1.2e-05 -1.11782e-05 
-4.75e-06 -1.225e-05 -1.11773e-05 
-4.75e-06 -1.2e-05 -1.11766e-05 
-4.5e-06 -1.225e-05 -1.11835e-05 
-4.5e-06 -1.2e-05 -1.118e-05 
-4.25e-06 -1.225e-05 -1.11781e-05 
-4.25e-06 -1.2e-05 -1.117e-05 
-4e-06 -1.225e-05 -1.11794e-05 
-4e-06 -1.2e-05 -1.1173e-05 
-3.75e-06 -1.225e-05 -1.11718e-05 
-3.75e-06 -1.2e-05 -1.11668e-05 
-3.5e-06 -1.225e-05 -1.11626e-05 
-3.5e-06 -1.2e-05 -1.11644e-05 
-3.25e-06 -1.225e-05 -1.11653e-05 
-3.25e-06 -1.2e-05 -1.11799e-05 
-3e-06 -1.225e-05 -1.11738e-05 
-3e-06 -1.2e-05 -1.11788e-05 
-2.75e-06 -1.225e-05 -1.11837e-05 
-2.75e-06 -1.2e-05 -1.11719e-05 
-2.5e-06 -1.225e-05 -1.11705e-05 
-2.5e-06 -1.2e-05 -1.1178e-05 
-2.25e-06 -1.225e-05 -1.11788e-05 
-2.25e-06 -1.2e-05 -1.11777e-05 
-2e-06 -1.225e-05 -1.11843e-05 
-2e-06 -1.2e-05 -1.11813e-05 
-1.75e-06 -1.225e-05 -1.11739e-05 
-1.75e-06 -1.2e-05 -1.11769e-05 
-1.5e-06 -1.225e-05 -1.11722e-05 
-1.5e-06 -1.2e-05 -1.11828e-05 
-1.25e-06 -1.225e-05 -1.11716e-05 
-1.25e-06 -1.2e-05 -1.1181e-05 
-1e-06 -1.225e-05 -1.11804e-05 
-1e-06 -1.2e-05 -1.11768e-05 
-7.5e-07 -1.225e-05 -1.11758e-05 
-7.5e-07 -1.2e-05 -1.11722e-05 
-5e-07 -1.225e-05 -1.11824e-05 
-5e-07 -1.2e-05 -1.11732e-05 
-2.5e-07 -1.225e-05 -1.1175e-05 
-2.5e-07 -1.2e-05 -1.11859e-05 
0 -1.225e-05 -1.11692e-05 
0 -1.2e-05 -1.1175e-05 
2.5e-07 -1.225e-05 -1.11643e-05 
2.5e-07 -1.2e-05 -1.11714e-05 
5e-07 -1.225e-05 -1.11669e-05 
5e-07 -1.2e-05 -1.11652e-05 
7.5e-07 -1.225e-05 -1.11742e-05 
7.5e-07 -1.2e-05 -1.11676e-05 
1e-06 -1.225e-05 -1.11724e-05 
1e-06 -1.2e-05 -1.11657e-05 
1.25e-06 -1.225e-05 -1.11705e-05 
1.25e-06 -1.2e-05 -1.11756e-05 
1.5e-06 -1.225e-05 -1.11829e-05 
1.5e-06 -1.2e-05 -1.1171e-05 
1.75e-06 -1.225e-05 -1.11672e-05 
1.75e-06 -1.2e-05 -1.11689e-05 
2e-06 -1.225e-05 -1.11768e-05 
2e-06 -1.2e-05 -1.1176e-05 
2.25e-06 -1.225e-05 -1.11805e-05 
2.25e-06 -1.2e-05 -1.11769e-05 
2.5e-06 -1.225e-05 -1.11792e-05 
2.5e-06 -1.2e-05 -1.11773e-05 
2.75e-06 -1.225e-05 -1.11708e-05 
2.75e-06 -1.2e-05 -1.11714e-05 
3e-06 -1.225e-05 -1.11705e-05 
3e-06 -1.2e-05 -1.1172e-05 
3.25e-06 -1.225e-05 -1.11671e-05 
3.25e-06 -1.2e-05 -1.11705e-05 
3.5e-06 -1.225e-05 -1.11717e-05 
3.5e-06 -1.2e-05 -1.11766e-05 
3.75e-06 -1.225e-05 -1.11854e-05 
3.75e-06 -1.2e-05 -1.11751e-05 
4e-06 -1.225e-05 -1.1172e-05 
4e-06 -1.2e-05 -1.11734e-05 
4.25e-06 -1.225e-05 -1.11631e-05 
4.25e-06 -1.2e-05 -1.1182e-05 
4.5e-06 -1.225e-05 -1.11599e-05 
4.5e-06 -1.2e-05 -1.11682e-05 
4.75e-06 -1.225e-05 -1.11804e-05 
4.75e-06 -1.2e-05 -1.11742e-05 
5e-06 -1.225e-05 -1.11798e-05 
5e-06 -1.2e-05 -1.11773e-05 
5.25e-06 -1.225e-05 -1.11877e-05 
5.25e-06 -1.2e-05 -1.11772e-05 
5.5e-06 -1.225e-05 -1.11778e-05 
5.5e-06 -1.2e-05 -1.11853e-05 
5.75e-06 -1.225e-05 -1.11665e-05 
5.75e-06 -1.2e-05 -1.11739e-05 
6e-06 -1.225e-05 -1.11751e-05 
6e-06 -1.2e-05 -1.11694e-05 
6.25e-06 -1.225e-05 -1.11813e-05 
6.25e-06 -1.2e-05 -1.11784e-05 
6.5e-06 -1.225e-05 -1.11806e-05 
6.5e-06 -1.2e-05 -1.11849e-05 
6.75e-06 -1.225e-05 -1.1165e-05 
6.75e-06 -1.2e-05 -1.11854e-05 
7e-06 -1.225e-05 -1.11632e-05 
7e-06 -1.2e-05 -1.11676e-05 
7.25e-06 -1.225e-05 -1.11706e-05 
7.25e-06 -1.2e-05 -1.1172e-05 
7.5e-06 -1.225e-05 -1.11718e-05 
7.5e-06 -1.2e-05 -1.11754e-05 
7.75e-06 -1.225e-05 -1.118e-05 
7.75e-06 -1.2e-05 -1.11727e-05 
8e-06 -1.225e-05 -1.11753e-05 
8e-06 -1.2e-05 -1.11698e-05 
8.25e-06 -1.225e-05 -1.11763e-05 
8.25e-06 -1.2e-05 -1.11746e-05 
8.5e-06 -1.225e-05 -1.11743e-05 
8.5e-06 -1.2e-05 -1.11623e-05 
8.75e-06 -1.225e-05 -1.11826e-05 
8.75e-06 -1.2e-05 -1.1172e-05 
9e-06 -1.225e-05 -1.11917e-05 
9e-06 -1.2e-05 -1.11783e-05 
9.25e-06 -1.225e-05 -1.11762e-05 
9.25e-06 -1.2e-05 -1.11758e-05 
9.5e-06 -1.225e-05 -1.11791e-05 
9.5e-06 -1.2e-05 -1.11763e-05 
9.75e-06 -1.225e-05 -1.11835e-05 
9.75e-06 -1.2e-05 -1.11746e-05 
1e-05 -1.225e-05 -1.11704e-05 
1e-05 -1.2e-05 -1.11676e-05 
1.025e-05 -1.225e-05 -1.11739e-05 
1.025e-05 -1.2e-05 -1.11732e-05 
1.05e-05 -1.225e-05 -1.11767e-05 
1.05e-05 -1.2e-05 -1.11627e-05 
1.075e-05 -1.225e-05 -1.1174e-05 
1.075e-05 -1.2e-05 -1.11709e-05 
1.1e-05 -1.225e-05 -1.11756e-05 
1.1e-05 -1.2e-05 -1.11808e-05 
1.125e-05 -1.225e-05 -1.1171e-05 
1.125e-05 -1.2e-05 -1.11777e-05 
1.15e-05 -1.225e-05 -1.11885e-05 
1.15e-05 -1.2e-05 -1.11754e-05 
1.175e-05 -1.225e-05 -1.11887e-05 
1.175e-05 -1.2e-05 -1.11808e-05 
1.2e-05 -1.225e-05 -1.11677e-05 
1.2e-05 -1.2e-05 -1.11633e-05 
1.225e-05 -1.225e-05 -1.11643e-05 
1.225e-05 -1.2e-05 -1.11647e-05 
-1.2e-05 -1.175e-05 -1.11715e-05 
-1.225e-05 -1.175e-05 -1.11724e-05 
-1.175e-05 -1.175e-05 -1.11627e-05 
-1.15e-05 -1.175e-05 -1.11645e-05 
-1.125e-05 -1.175e-05 -1.1163e-05 
-1.1e-05 -1.175e-05 -1.11654e-05 
-1.075e-05 -1.175e-05 -1.11617e-05 
-1.05e-05 -1.175e-05 -1.11703e-05 
-1.025e-05 -1.175e-05 -1.11646e-05 
-1e-05 -1.175e-05 -1.11705e-05 
-9.75e-06 -1.175e-05 -1.11795e-05 
-9.5e-06 -1.175e-05 -1.11736e-05 
-9.25e-06 -1.175e-05 -1.11754e-05 
-9e-06 -1.175e-05 -1.11763e-05 
-8.75e-06 -1.175e-05 -1.11672e-05 
-8.5e-06 -1.175e-05 -1.11684e-05 
-8.25e-06 -1.175e-05 -1.1169e-05 
-8e-06 -1.175e-05 -1.11757e-05 
-7.75e-06 -1.175e-05 -1.11817e-05 
-7.5e-06 -1.175e-05 -1.11782e-05 
-7.25e-06 -1.175e-05 -1.11904e-05 
-7e-06 -1.175e-05 -1.11728e-05 
-6.75e-06 -1.175e-05 -1.1173e-05 
-6.5e-06 -1.175e-05 -1.11708e-05 
-6.25e-06 -1.175e-05 -1.11909e-05 
-6e-06 -1.175e-05 -1.11767e-05 
-5.75e-06 -1.175e-05 -1.11727e-05 
-5.5e-06 -1.175e-05 -1.11765e-05 
-5.25e-06 -1.175e-05 -1.11859e-05 
-5e-06 -1.175e-05 -1.11738e-05 
-4.75e-06 -1.175e-05 -1.1187e-05 
-4.5e-06 -1.175e-05 -1.11676e-05 
-4.25e-06 -1.175e-05 -1.1171e-05 
-4e-06 -1.175e-05 -1.11687e-05 
-3.75e-06 -1.175e-05 -1.1174e-05 
-3.5e-06 -1.175e-05 -1.11766e-05 
-3.25e-06 -1.175e-05 -1.11814e-05 
-3e-06 -1.175e-05 -1.11727e-05 
-2.75e-06 -1.175e-05 -1.1167e-05 
-2.5e-06 -1.175e-05 -1.11635e-05 
-2.25e-06 -1.175e-05 -1.11679e-05 
-2e-06 -1.175e-05 -1.11828e-05 
-1.75e-06 -1.175e-05 -1.11775e-05 
-1.5e-06 -1.175e-05 -1.11748e-05 
-1.25e-06 -1.175e-05 -1.11808e-05 
-1e-06 -1.175e-05 -1.11754e-05 
-7.5e-07 -1.175e-05 -1.11666e-05 
-5e-07 -1.175e-05 -1.11657e-05 
-2.5e-07 -1.175e-05 -1.11904e-05 
0 -1.175e-05 -1.11896e-05 
2.5e-07 -1.175e-05 -1.11894e-05 
5e-07 -1.175e-05 -1.11653e-05 
7.5e-07 -1.175e-05 -1.11722e-05 
1e-06 -1.175e-05 -1.11792e-05 
1.25e-06 -1.175e-05 -1.11651e-05 
1.5e-06 -1.175e-05 -1.11697e-05 
1.75e-06 -1.175e-05 -1.1177e-05 
2e-06 -1.175e-05 -1.11737e-05 
2.25e-06 -1.175e-05 -1.11664e-05 
2.5e-06 -1.175e-05 -1.1171e-05 
2.75e-06 -1.175e-05 -1.11702e-05 
3e-06 -1.175e-05 -1.11724e-05 
3.25e-06 -1.175e-05 -1.11791e-05 
3.5e-06 -1.175e-05 -1.11806e-05 
3.75e-06 -1.175e-05 -1.11701e-05 
4e-06 -1.175e-05 -1.11652e-05 
4.25e-06 -1.175e-05 -1.11775e-05 
4.5e-06 -1.175e-05 -1.11687e-05 
4.75e-06 -1.175e-05 -1.11792e-05 
5e-06 -1.175e-05 -1.11826e-05 
5.25e-06 -1.175e-05 -1.11854e-05 
5.5e-06 -1.175e-05 -1.11701e-05 
5.75e-06 -1.175e-05 -1.11756e-05 
6e-06 -1.175e-05 -1.11792e-05 
6.25e-06 -1.175e-05 -1.11799e-05 
6.5e-06 -1.175e-05 -1.11764e-05 
6.75e-06 -1.175e-05 -1.11838e-05 
7e-06 -1.175e-05 -1.11678e-05 
7.25e-06 -1.175e-05 -1.11777e-05 
7.5e-06 -1.175e-05 -1.11942e-05 
7.75e-06 -1.175e-05 -1.11869e-05 
8e-06 -1.175e-05 -1.11812e-05 
8.25e-06 -1.175e-05 -1.11759e-05 
8.5e-06 -1.175e-05 -1.11745e-05 
8.75e-06 -1.175e-05 -1.1169e-05 
9e-06 -1.175e-05 -1.11772e-05 
9.25e-06 -1.175e-05 -1.11749e-05 
9.5e-06 -1.175e-05 -1.11739e-05 
9.75e-06 -1.175e-05 -1.11795e-05 
1e-05 -1.175e-05 -1.1174e-05 
1.025e-05 -1.175e-05 -1.11802e-05 
1.05e-05 -1.175e-05 -1.1166e-05 
1.075e-05 -1.175e-05 -1.11813e-05 
1.1e-05 -1.175e-05 -1.11811e-05 
1.125e-05 -1.175e-05 -1.11748e-05 
1.15e-05 -1.175e-05 -1.11725e-05 
1.175e-05 -1.175e-05 -1.11696e-05 
1.2e-05 -1.175e-05 -1.11669e-05 
1.225e-05 -1.175e-05 -1.11724e-05 
-1.2e-05 -1.15e-05 -1.11796e-05 
-1.225e-05 -1.15e-05 -1.11708e-05 
-1.175e-05 -1.15e-05 -1.11741e-05 
-1.15e-05 -1.15e-05 -1.11703e-05 
[...]
POINT_DATA 15735
SCALARS Velocities float 1
LOOKUP_TABLE default
-3.4069e-06
-3.4365e-06
-3.59164e-06
-3.54434e-06
-3.69086e-06
-3.51821e-06
-3.58388e-06
-3.55168e-06
-3.60425e-06
-3.66176e-06
-3.59817e-06
-3.5527e-06
-3.57422e-06
-3.084e-06
-3.46948e-06
-3.22781e-06
-3.63595e-06
-3.62906e-06
-3.29841e-06
-3.54625e-06
-3.29958e-06
-3.38211e-06
-3.43374e-06
-3.47965e-06
-3.37203e-06
-3.22347e-06
-3.61846e-06
-3.31929e-06
-3.3095e-06
-3.36389e-06
-3.4145e-06
-3.43642e-06
-3.45543e-06
-3.23841e-06
-3.55477e-06
-3.35883e-06
-3.73719e-06
-3.44888e-06
-3.47923e-06
-3.66185e-06
-3.2422e-06
-3.63887e-06
-3.50955e-06
-3.35926e-06
-3.36512e-06
-3.25589e-06
-3.6697e-06
-3.72132e-06
-3.69257e-06
-3.41462e-06
-3.60173e-06
-3.20739e-06
-3.45151e-06
-3.19418e-06
-3.37952e-06
-3.53851e-06
-3.43623e-06
-3.75247e-06
-3.36246e-06
-3.51515e-06
-3.29674e-06
-3.32735e-06
-3.61598e-06
-3.4771e-06
-3.40967e-06
-3.4172e-06
-3.34566e-06
-3.43258e-06
-3.20816e-06
-3.40922e-06
-3.52588e-06
-3.44943e-06
-3.65796e-06
-3.56543e-06
-3.44901e-06
-3.44738e-06
-3.52431e-06
-3.5704e-06
-3.60281e-06
-3.47976e-06
-3.45355e-06
-3.30031e-06
-3.48801e-06
-3.33423e-06
-3.54847e-06
-3.43622e-06
-3.59226e-06
-3.41195e-06
-3.5257e-06
-3.38045e-06
-3.37569e-06
-3.45683e-06
-3.49254e-06
-3.53987e-06
-3.42961e-06
-3.57764e-06
-3.5102e-06
-3.75259e-06
-3.423e-06
-3.4475e-06
-3.26282e-06
-3.40174e-06
-3.33593e-06
-3.22289e-06
-3.31856e-06
-3.29556e-06
-3.43553e-06
-3.44735e-06
-3.39964e-06
-3.46689e-06
-3.29549e-06
-3.56304e-06
-3.10864e-06
-3.40688e-06
-3.60795e-06
-3.70588e-06
-3.34623e-06
-3.44485e-06
-3.4614e-06
-3.60961e-06
-3.67337e-06
-3.32945e-06
-3.49006e-06
-3.22947e-06
-3.55315e-06
-3.43839e-06
-3.49212e-06
-3.39389e-06
-3.6765e-06
-3.44798e-06
-3.60523e-06
-3.55558e-06
-3.349e-06
-3.3821e-06
-3.41643e-06
-3.18134e-06
-3.50196e-06
-3.37956e-06
-3.5146e-06
-3.41386e-06
-3.51598e-06
-3.56522e-06
-3.36904e-06
-3.63549e-06
-3.43984e-06
-3.69913e-06
-3.39558e-06
-3.49738e-06
-3.5578e-06
-3.50916e-06
-3.483e-06
-3.34165e-06
-3.45423e-06
-3.33328e-06
-3.52707e-06
-3.35709e-06
-3.31968e-06
-3.5441e-06
-3.65297e-06
-3.45412e-06
-3.45092e-06
-3.41711e-06
-3.52387e-06
-3.36674e-06
-3.38837e-06
-3.46269e-06
-3.43302e-06
-3.45733e-06
-3.41092e-06
-3.40032e-06
-3.59296e-06
-3.55809e-06
-3.57742e-06
-3.72642e-06
-3.5412e-06
-3.47287e-06
-3.35418e-06
-3.4197e-06
-3.51177e-06
-3.54316e-06
-3.54183e-06
-3.45791e-06
-3.37956e-06
-3.59767e-06
-3.42366e-06
-3.40209e-06
-3.45323e-06
-3.46421e-06
-3.51613e-06
-3.36177e-06
-3.33371e-06
-3.53071e-06
-3.37474e-06
-3.30944e-06
-3.66807e-06
-3.43453e-06
-3.59164e-06
-3.54434e-06
-3.55364e-06
-3.51556e-06
-3.3102e-06
-3.2659e-06
-3.23015e-06
-3.34096e-06
-3.39513e-06
-3.61174e-06
-3.57612e-06
-3.60909e-06
-3.59974e-06
-3.4805e-06
-3.19613e-06
-3.3687e-06
-3.54208e-06
-3.53008e-06
-3.41862e-06
-3.45236e-06
-3.44595e-06
-3.5399e-06
-3.53522e-06
-3.49188e-06
-3.14488e-06
-3.66963e-06
-3.50463e-06
-3.46528e-06
-3.37914e-06
-3.42597e-06
-3.37727e-06
-3.34407e-06
-3.26555e-06
-3.3656e-06
-3.53628e-06
-3.31736e-06
-3.38027e-06
-3.44534e-06
-3.44136e-06
-3.36825e-06
-3.26306e-06
-3.33856e-06
-3.30931e-06
-3.27615e-06
-3.35869e-06
-3.37303e-06
-3.35387e-06
-3.68135e-06
-3.73084e-06
-3.45994e-06
-3.32982e-06
-3.35705e-06
-3.38667e-06
-3.21562e-06
-3.51478e-06
-3.35015e-06
-3.47267e-06
-3.58053e-06
-3.3571e-06
-3.45138e-06
-3.39665e-06
-3.63509e-06
-3.45e-06
-3.29856e-06
-3.59487e-06
-3.46902e-06
-3.40947e-06
-3.3387e-06
-3.34235e-06
-3.33295e-06
-3.45854e-06
-3.51841e-06
-3.44276e-06
-3.4596e-06
-3.49242e-06
-3.57804e-06
-3.37476e-06
-3.45102e-06
-3.39612e-06
-3.41016e-06
-3.4681e-06
-3.37511e-06
-3.34748e-06
-3.42482e-06
-3.38477e-06
-3.44431e-06
-3.55893e-06
-3.51022e-06
-3.48937e-06
-3.53135e-06
-3.38202e-06
-3.33911e-06
-3.40219e-06
-3.64302e-06
-3.46004e-06
-3.46164e-06
-3.46169e-06
-3.58177e-06
-3.45724e-06
-3.60018e-06
-3.51556e-06
-3.42719e-06
-3.39029e-06
-3.35485e-06
-3.31262e-06
-3.07549e-06
-3.40292e-06
-3.8351e-06
-3.81571e-06
-3.42924e-06
-3.33907e-06
-3.28404e-06
-3.35912e-06
-3.37596e-06
-3.61317e-06
-3.44595e-06
-3.50475e-06
-3.40454e-06
-3.48113e-06
-3.58225e-06
-3.20786e-06
-3.3378e-06
-3.36148e-06
-3.2848e-06
-3.57687e-06
-3.69705e-06
-3.43225e-06
-3.39289e-06
-3.43827e-06
-3.20549e-06
-3.41002e-06
-3.37819e-06
-3.32445e-06
-3.44726e-06
-3.42431e-06
-3.43993e-06
-3.56494e-06
-3.47302e-06
-3.47711e-06
-3.46582e-06
-3.65463e-06
-3.47898e-06
-3.64503e-06
-3.34784e-06
-3.32944e-06
-3.403e-06
-3.59227e-06
-3.37809e-06
-3.29608e-06
-3.22511e-06
-3.62918e-06
-3.47302e-06
-3.48353e-06
-3.60817e-06
-3.28555e-06
-3.41185e-06
-3.5857e-06
-3.35244e-06
-3.39995e-06
-3.53726e-06
-3.27394e-06
-3.2711e-06
-3.38791e-06
-3.53103e-06
-3.61496e-06
-3.49203e-06
-3.31835e-06
-3.4283e-06
-3.3844e-06
-3.43763e-06
-3.53688e-06
-3.43855e-06
-3.49578e-06
-3.5206e-06
-3.64335e-06
-3.46698e-06
-3.42923e-06
-3.46292e-06
-3.49625e-06
-3.58378e-06
-3.61333e-06
-3.32093e-06
-3.46001e-06
-3.24923e-06
-3.43659e-06
-3.3814e-06
-3.46848e-06
-3.56312e-06
-3.55834e-06
-3.29113e-06
-3.3554e-06
-3.54477e-06
-3.54899e-06
-3.38784e-06
-3.59609e-06
-3.50165e-06
-3.40525e-06
-3.71348e-06
-3.62637e-06
-3.39029e-06
-3.39686e-06
-3.4599e-06
-3.46826e-06
-3.40845e-06
-3.47748e-06
-3.3887e-06
-3.44245e-06
-3.33069e-06
-3.35641e-06
-3.588e-06
-3.52814e-06
-3.47334e-06
-3.52049e-06
-3.40104e-06
-3.35833e-06
-3.50882e-06
-3.2962e-06
-3.35207e-06
-3.51468e-06
-3.4965e-06
-3.32219e-06
-3.37637e-06
-3.31918e-06
-3.49675e-06
-3.35466e-06
-3.12397e-06
-3.29504e-06
-3.38314e-06
-3.31212e-06
-3.35178e-06
-3.35187e-06
-3.31346e-06
-3.23354e-06
-3.37559e-06
-3.61676e-06
-3.44706e-06
-3.60652e-06
-3.44334e-06
-3.20865e-06
-3.44005e-06
-3.34063e-06
-3.54633e-06
-3.64312e-06
-3.54577e-06
-3.37418e-06
-3.40638e-06
-3.42308e-06
-3.50541e-06
-3.5599e-06
-3.55176e-06
-3.2121e-06
-3.44007e-06
-3.54116e-06
-3.41713e-06
-3.47816e-06
-3.3927e-06
-3.40727e-06
-3.4501e-06
-3.54563e-06
-3.49868e-06
-3.44359e-06
-3.39884e-06
-3.48399e-06
-3.46775e-06
-3.39375e-06
-3.51845e-06
-3.60748e-06
-3.54899e-06
-3.45382e-06
-3.44431e-06
-3.2673e-06
-3.35602e-06
-3.42016e-06
-3.4495e-06
-3.55587e-06
-3.39321e-06
-3.29928e-06
-3.34535e-06
-3.30862e-06
-3.65898e-06
-3.25593e-06
-3.56794e-06
-3.45853e-06
-3.49742e-06
-3.40805e-06
-3.53847e-06
-3.43613e-06
-3.53424e-06
-3.44972e-06
-3.61823e-06
-3.56729e-06
-3.45611e-06
-3.29781e-06
-3.46992e-06
-3.41514e-06
-3.45398e-06
-3.55428e-06
-3.53758e-06
-3.4599e-06
-3.434e-06
-3.49534e-06
-3.45401e-06
-3.47895e-06
-3.45633e-06
-3.32588e-06
-3.37816e-06
-3.23443e-06
-3.52427e-06
-3.4396e-06
-3.34929e-06
-3.33566e-06
-3.58933e-06
-3.59387e-06
-3.6588e-06
-3.62958e-06
-3.30963e-06
-3.41088e-06
-3.40237e-06
-3.48766e-06
-3.30785e-06
-3.46545e-06
-3.65741e-06
-3.73059e-06
-3.55612e-06
-3.23217e-06
-3.43505e-06
-3.65026e-06
-3.46412e-06
-3.37712e-06
-3.30659e-06
-3.51742e-06
-3.52436e-06
-3.62796e-06
-3.52054e-06
-3.35505e-06
-3.62123e-06
-3.41632e-06
-3.40003e-06
-3.39263e-06
-3.45682e-06
-3.53208e-06
-3.48312e-06
-3.55458e-06
-3.40961e-06
-3.36886e-06
-3.60582e-06
-3.55042e-06
-3.37571e-06
-3.6097e-06
-3.35464e-06
-3.45592e-06
-3.40525e-06
-3.60183e-06
-3.47212e-06
-3.43958e-06
-3.51914e-06
-3.49282e-06
-3.37322e-06
-3.58009e-06
-3.5929e-06
-3.61975e-06
-3.40449e-06
-3.34348e-06
-3.4748e-06
-3.69362e-06
-3.67346e-06
-3.41016e-06
-3.37079e-06
-3.3761e-06
-3.37066e-06
-3.25634e-06
-3.30786e-06
-3.57237e-06
-3.52307e-06
-3.54743e-06
-3.32156e-06
-3.24788e-06
-3.49997e-06
-3.53384e-06
-3.44351e-06
-3.431e-06
-3.39728e-06
-3.32668e-06
-3.05053e-06
-3.30087e-06
-3.52636e-06
-3.5394e-06
-3.39578e-06
-3.57967e-06
-3.39763e-06
-3.56776e-06
-3.50572e-06
-3.48418e-06
-3.25501e-06
-3.37335e-06
-3.49249e-06
-3.38664e-06
-3.49534e-06
-3.50166e-06
-3.41253e-06
-3.60147e-06
-3.55504e-06
-3.56208e-06
-3.46417e-06
-3.47466e-06
-3.41036e-06
-3.47752e-06
-3.52149e-06
-3.56071e-06
-3.4891e-06
-3.49789e-06
-3.3161e-06
-3.69126e-06
-3.56941e-06
-3.38856e-06
-3.38943e-06
-3.282e-06
-3.3742e-06
-3.51038e-06
-3.39088e-06
-3.63807e-06
-3.65865e-06
-3.25304e-06
-3.24972e-06
-3.38996e-06
-3.65036e-06
-3.52989e-06
-3.54805e-06
-3.68241e-06
-3.48722e-06
-3.39483e-06
-3.5724e-06
-3.38704e-06
-3.25985e-06
-3.28524e-06
-3.44516e-06
-3.50092e-06
-3.58546e-06
-3.6276e-06
-3.47462e-06
-3.39855e-06
-3.61361e-06
-3.54795e-06
-3.41051e-06
-3.41236e-06
-3.45336e-06
-3.40072e-06
-3.61451e-06
-3.47766e-06
-3.471e-06
-3.33092e-06
-3.753e-06
-3.41416e-06
-3.65651e-06
-3.54456e-06
-3.43757e-06
-3.19291e-06
-3.28783e-06
-3.51398e-06
-3.49734e-06
-3.47632e-06
-3.25188e-06
-3.38536e-06
-3.65185e-06
-3.50159e-06
-3.38085e-06
-3.39207e-06
-3.33071e-06
-3.43765e-06
-3.4708e-06
-3.47061e-06
-3.44861e-06
-3.49239e-06
-3.44547e-06
-3.39467e-06
-3.30188e-06
-3.41113e-06
-3.45876e-06
-3.30135e-06
-3.48598e-06
-3.39729e-06
-3.32675e-06
-3.31559e-06
-3.21605e-06
-3.4366e-06
-3.42207e-06
-3.66929e-06
-3.46827e-06
-3.41944e-06
-3.27797e-06
-3.42342e-06
-3.5183e-06
-3.42238e-06
-3.42452e-06
-3.47276e-06
-3.2052e-06
-3.41253e-06
-3.4837e-06
-3.31553e-06
-3.55136e-06
-3.37874e-06
-3.41985e-06
-3.59047e-06
-3.34681e-06
-3.35798e-06
-3.43484e-06
-3.48485e-06
-3.51362e-06
-3.52489e-06
-3.5242e-06
-3.37104e-06
-3.51292e-06
-3.48352e-06
-3.38204e-06
-3.41991e-06
-3.3297e-06
-3.32915e-06
-3.58637e-06
-3.41897e-06
-3.47544e-06
-3.42936e-06
-3.4319e-06
-3.49003e-06
-3.43112e-06
-3.70113e-06
-3.46246e-06
-3.48113e-06
-3.54853e-06
-3.47165e-06
-3.41816e-06
-3.47469e-06
-3.54109e-06
-3.40342e-06
-3.5901e-06
-3.66732e-06
-3.38519e-06
-3.53974e-06
-3.7232e-06
-3.33115e-06
-3.38687e-06
-3.40511e-06
-3.43816e-06
-3.61743e-06
-3.28782e-06
-3.4009e-06
-3.31112e-06
-3.28887e-06
-3.41823e-06
-3.44081e-06
-3.57248e-06
-3.59257e-06
-3.34856e-06
-3.54299e-06
-3.35871e-06
-3.35704e-06
-3.43402e-06
-3.45344e-06
-3.31934e-06
-3.41242e-06
-3.47263e-06
-3.24134e-06
-3.50992e-06
-3.41536e-06
-3.36308e-06
-3.30454e-06
-3.44188e-06
-3.46874e-06
-3.50057e-06
-3.50643e-06
-3.26164e-06
-3.59245e-06
-3.49197e-06
-3.27204e-06
-3.32652e-06
-3.38865e-06
-3.37684e-06
-3.30646e-06
-3.29044e-06
-3.37799e-06
-3.29292e-06
-3.38872e-06
-3.28108e-06
-3.28027e-06
-3.38723e-06
-3.32112e-06
-3.38049e-06
-3.44147e-06
-3.60314e-06
-3.49497e-06
-3.35842e-06
-3.37417e-06
-3.35399e-06
-3.55847e-06
-3.48721e-06
-3.15508e-06
-3.31553e-06
-3.73478e-06
-3.47747e-06
-3.53523e-06
-3.48514e-06
-3.35508e-06
-3.49697e-06
-3.26536e-06
-3.52788e-06
-3.34594e-06
-3.40382e-06
-3.17319e-06
-3.55224e-06
-3.62052e-06
-3.35304e-06
-3.29767e-06
-3.44983e-06
-3.51684e-06
-3.50155e-06
-3.37696e-06
-3.57625e-06
-3.51937e-06
-3.49983e-06
-3.61879e-06
-3.4748e-06
-3.46607e-06
-3.52757e-06
-3.39705e-06
-3.69274e-06
-3.63422e-06
-3.49116e-06
-3.46591e-06
-3.26405e-06
-3.39177e-06
-3.32486e-06
-3.42561e-06
-3.49071e-06
-3.79598e-06
-3.57288e-06
-3.46626e-06
-3.33485e-06
-3.47005e-06
-3.26597e-06
-3.4342e-06
-3.44402e-06
-3.28781e-06
-3.58022e-06
-3.46034e-06
-3.60619e-06
-3.49809e-06
-3.67691e-06
-3.45601e-06
-3.39776e-06
-3.34236e-06
-3.47013e-06
-3.37858e-06
-3.3311e-06
-3.12174e-06
-3.4874e-06
-3.58974e-06
-3.48749e-06
-3.26491e-06
-3.37289e-06
-3.38476e-06
-3.39616e-06
-3.34924e-06
-3.39041e-06
-3.40466e-06
-3.53748e-06
-3.51001e-06
-3.39719e-06
-3.40257e-06
-3.31026e-06
-3.41505e-06
-3.54251e-06
-3.61642e-06
-3.58151e-06
-3.29179e-06
-3.41989e-06
-3.45226e-06
-3.53145e-06
-3.62518e-06
-3.20961e-06
-3.21248e-06
-3.62277e-06
-3.44595e-06
-3.41087e-06
-3.4291e-06
-3.45354e-06
-3.49125e-06
-3.48646e-06
-3.50109e-06
-3.53973e-06
-3.43497e-06
-3.43218e-06
-3.49621e-06
-3.65646e-06
-3.61269e-06
-3.1611e-06
-3.47747e-06
-3.4698e-06
-3.26621e-06
-3.63214e-06
-3.50507e-06
-3.34604e-06
-3.47385e-06
-3.23539e-06
-3.473e-06
-3.37195e-06
-3.32438e-06
-3.02846e-06
-3.43074e-06
-3.53072e-06
-3.52241e-06
-3.4256e-06
-3.36356e-06
-3.55221e-06
-3.55037e-06
-3.33307e-06
-3.3795e-06
-3.3034e-06
-3.56535e-06
-3.64086e-06
-3.58363e-06
-3.50334e-06
-3.35575e-06
-3.42949e-06
-3.62565e-06
-3.51349e-06
-3.19864e-06
-3.51455e-06
-3.34772e-06
-3.3797e-06
-3.56869e-06
-3.52471e-06
-3.52501e-06
-3.43732e-06
-3.56277e-06
-3.47334e-06
-3.40414e-06
-3.48933e-06
-3.41216e-06
-3.43476e-06
-3.37465e-06
-3.36423e-06
-3.19617e-06
-3.36417e-06
-3.4136e-06
-3.34519e-06
-3.52039e-06
-3.48992e-06
-3.37391e-06
-3.45017e-06
-3.3703e-06
-3.27691e-06
-3.24317e-06
-3.37204e-06
-3.51467e-06
-3.41636e-06
-3.44807e-06
-3.47772e-06
-3.58275e-06
-3.41697e-06
-3.42456e-06
-3.38506e-06
-3.37512e-06
-3.2543e-06
-3.4452e-06
-3.28769e-06
-3.46722e-06
-3.49117e-06
-3.49826e-06
-3.59367e-06
-3.51812e-06
-3.61573e-06
-3.62042e-06
-3.54598e-06
-3.34694e-06
-3.29904e-06
-3.38794e-06
-3.42243e-06
-3.46987e-06
-3.47819e-06
-3.44558e-06
-3.62367e-06
-3.3335e-06
-3.13256e-06
-3.33978e-06
-3.66092e-06
-3.45826e-06
-3.56834e-06
-3.34494e-06
-3.27342e-06
-3.34463e-06
-3.26129e-06
-3.53278e-06
-3.27634e-06
-3.46914e-06
-3.26621e-06
-3.49471e-06
-3.44175e-06
-3.3914e-06
-3.52662e-06
-3.35281e-06
-3.43365e-06
-3.35839e-06
-3.33063e-06
-3.68881e-06
-3.57323e-06
-3.15831e-06
-3.34931e-06
-3.36044e-06
-3.28368e-06
-3.36758e-06
-3.48205e-06
-3.71229e-06
-3.76718e-06
-3.41015e-06
-3.4948e-06
-3.46324e-06
-3.70911e-06
-3.33166e-06
-3.21838e-06
-3.4967e-06
-3.31768e-06
-3.65835e-06
-3.66774e-06
-3.50442e-06
-3.45355e-06
-3.43496e-06
-3.37713e-06
-3.60475e-06
-3.72251e-06
-3.56165e-06
-3.46586e-06
-3.2045e-06
-3.44768e-06
-3.57399e-06
-3.26937e-06
-3.63038e-06
-3.57722e-06
-3.48956e-06
-3.54205e-06
-3.44621e-06
-3.47165e-06
-3.49609e-06
-3.36104e-06
-3.48216e-06
-3.79529e-06
-3.65064e-06
-3.38777e-06
-3.3953e-06
-3.5102e-06
-3.46504e-06
-3.38329e-06
-3.30249e-06
-3.28486e-06
-3.44884e-06
-3.52834e-06
-3.43639e-06
-3.6725e-06
-3.38812e-06
-3.35214e-06
-3.60351e-06
-3.51256e-06
-3.53856e-06
-3.45579e-06
-3.30073e-06
-3.4662e-06
-3.596e-06
-3.67267e-06
-3.58013e-06
-3.32356e-06
-3.42597e-06
-3.50141e-06
-3.46764e-06
-3.65843e-06
-3.48515e-06
-3.51854e-06
-3.39132e-06
-3.46889e-06
-3.34003e-06
-3.43769e-06
-3.56271e-06
-3.36073e-06
-3.39108e-06
-3.52819e-06
-3.42465e-06
-3.45577e-06
-3.37775e-06
-3.53338e-06
-3.34882e-06
-3.48868e-06
-3.29524e-06
-3.28691e-06
-3.28202e-06
-3.54069e-06
-3.44175e-06
-3.622e-06
-3.29295e-06
-3.37741e-06
-3.43126e-06
-3.59775e-06
-3.43885e-06
-3.50929e-06
-3.39188e-06
-3.52464e-06
-3.5252e-06
-3.5652e-06
-3.43253e-06
-3.32438e-06
-3.36666e-06
-3.23746e-06
-3.50593e-06
-3.47998e-06
-3.53294e-06
-3.36953e-06
-3.5095e-06
-3.38282e-06
-3.48352e-06
-3.34538e-06
-3.4234e-06
-3.51742e-06
-3.42219e-06
-3.60247e-06
-3.51261e-06
-3.34304e-06
-3.58901e-06
-3.37197e-06
-3.36271e-06
-3.2842e-06
-3.42742e-06
-3.19169e-06
-3.26984e-06
-3.33806e-06
-3.53395e-06
-3.56123e-06
-3.38897e-06
-3.52951e-06
-3.37843e-06
-3.39184e-06
-3.51083e-06
-3.56857e-06
-3.4985e-06
-3.55019e-06
-3.5756e-06
-3.53761e-06
-3.58839e-06
-3.81074e-06
-3.46722e-06
-3.51439e-06
-3.40208e-06
-3.50216e-06
-3.44575e-06
-3.38239e-06
-3.47302e-06
-3.60673e-06
-3.52544e-06
-3.31963e-06
-3.46417e-06
-3.29643e-06
-3.35078e-06
-3.44768e-06
-3.37863e-06
-3.54697e-06
-3.52133e-06
-3.24568e-06
-3.42694e-06
-3.57601e-06
-3.36675e-06
-3.38498e-06
-3.22033e-06
-3.5388e-06
-3.33611e-06
-3.31314e-06
-3.27132e-06
-3.31586e-06
-3.41408e-06
-3.27066e-06
-3.41196e-06
-3.40131e-06
-3.41495e-06
-3.36841e-06
-3.29873e-06
-3.32971e-06
-3.52496e-06
-3.37193e-06
-3.35542e-06
-3.41044e-06
-3.36867e-06
-3.35273e-06
-3.42533e-06
-3.38678e-06
-3.43093e-06
-3.5177e-06
-3.46179e-06
-3.29295e-06
-3.45461e-06
-3.45235e-06
-3.42098e-06
-3.39967e-06
-3.31326e-06
-3.38855e-06
-3.57078e-06
-3.56305e-06
-3.46293e-06
-3.42108e-06
-3.41289e-06
-3.25892e-06
-3.3188e-06
-3.54454e-06
-3.55617e-06
-3.39015e-06
-3.33746e-06
-3.54301e-06
-3.53724e-06
-3.37729e-06
-3.23956e-06
-3.49392e-06
-3.46438e-06
-3.44662e-06
-3.6151e-06
-3.3634e-06
-3.34013e-06
-3.35688e-06
-3.24403e-06
-3.44159e-06
-3.36749e-06
-3.59616e-06
-3.41067e-06
-3.40958e-06
-3.46381e-06
-3.3924e-06
-3.31235e-06
-3.5251e-06
-3.588e-06
-3.40824e-06
-3.2926e-06
-3.52513e-06
-3.54631e-06
-3.46046e-06
-3.43139e-06
-3.3685e-06
-3.46192e-06
-3.48504e-06
-3.44428e-06
-3.48523e-06
-3.66794e-06
-3.13133e-06
-3.35873e-06
-3.46515e-06
-3.2652e-06
-3.4513e-06
-3.34575e-06
-3.59707e-06
-3.65731e-06
-3.54108e-06
-3.35784e-06
-3.66949e-06
-3.44739e-06
-3.22994e-06
-3.53975e-06
-3.39269e-06
-3.37613e-06
-3.44858e-06
-3.49103e-06
-3.5312e-06
-3.35281e-06
-3.3259e-06
-3.4189e-06
-3.34199e-06
-3.44636e-06
-3.36496e-06
-3.40511e-06
-3.45213e-06
-3.46558e-06
-3.40671e-06
-3.4767e-06
-3.36586e-06
-3.39401e-06
-3.32229e-06
-3.42072e-06
-3.52986e-06
-3.39229e-06
-3.45813e-06
-3.49599e-06
-3.37067e-06
-3.38873e-06
-3.35033e-06
-3.26706e-06
-3.44463e-06
-3.28984e-06
-3.2715e-06
-3.31699e-06
-3.3645e-06
-3.45235e-06
-3.16154e-06
-3.28386e-06
-3.33642e-06
-3.31169e-06
-3.33285e-06
-3.44322e-06
-3.62222e-06
-3.34503e-06
-3.4433e-06
-3.74127e-06
-3.41832e-06
-3.25386e-06
-3.48033e-06
-3.43779e-06
-3.48748e-06
-3.55015e-06
-3.46466e-06
-3.50993e-06
-3.42867e-06
-3.47699e-06
-3.40365e-06
-3.48352e-06
-3.44259e-06
-3.60697e-06
-3.31344e-06
-3.33947e-06
-3.44264e-06
-3.6327e-06
-3.23819e-06
-3.39171e-06
-3.53423e-06
-3.5184e-06
-3.48528e-06
-3.44306e-06
-3.69027e-06
-3.68508e-06
-3.45977e-06
-3.50167e-06
-3.44438e-06
-3.49056e-06
-3.38375e-06
-3.50603e-06
-3.44523e-06
-3.62719e-06
-3.48716e-06
-3.51872e-06
-3.45823e-06
-3.55876e-06
-3.35564e-06
-3.58103e-06
-3.33727e-06
-3.23432e-06
-3.40779e-06
-3.536e-06
-3.3681e-06
-3.44337e-06
-3.35731e-06
-3.27098e-06
-3.31775e-06
-3.4963e-06
-3.457e-06
-3.53862e-06
-3.45715e-06
-3.4797e-06
-3.61562e-06
-3.38122e-06
-3.21053e-06
-3.44899e-06
-3.63896e-06
-3.6412e-06
-3.50242e-06
-3.30847e-06
-3.47035e-06
-3.65485e-06
-3.48046e-06
-3.38402e-06
-3.2683e-06
-3.4388e-06
-3.63159e-06
-3.49187e-06
-3.42597e-06
-3.41221e-06
-3.29403e-06
-3.49242e-06
-3.53264e-06
-3.57825e-06
-3.42328e-06
-3.59078e-06
-3.58866e-06
-3.3354e-06
-3.53981e-06
-3.30268e-06
-3.50639e-06
-3.59796e-06
-3.5471e-06
-3.48858e-06
-3.41379e-06
-3.5558e-06
-3.28386e-06
-3.19007e-06
-3.36588e-06
-3.38405e-06
-3.48955e-06
-3.3009e-06
-3.40059e-06
-3.61928e-06
-3.51339e-06
-3.50759e-06
-3.69667e-06
-3.52216e-06
-3.39396e-06
-3.71289e-06
-3.30548e-06
-3.38887e-06
-3.45389e-06
-3.26507e-06
-3.57055e-06
-3.46136e-06
-3.28973e-06
-3.33218e-06
-3.59071e-06
-3.28901e-06
-3.61154e-06
-3.18239e-06
-3.3532e-06
-3.51036e-06
-3.61293e-06
-3.38862e-06
-3.36563e-06
-3.39606e-06
-3.49688e-06
-3.45795e-06
-3.35291e-06
-3.46336e-06
-3.51645e-06
-3.37515e-06
-3.53487e-06
-3.37072e-06
-3.46051e-06
-3.54279e-06
-3.54473e-06
-3.318e-06
-3.47112e-06
-3.44458e-06
-3.56797e-06
-3.45141e-06
-3.41966e-06
-3.26022e-06
-3.61161e-06
-3.34597e-06
-3.28116e-06
-3.48568e-06
-3.5072e-06
-3.57823e-06
-3.66763e-06
-3.60078e-06
-3.4532e-06
-3.44246e-06
-3.51627e-06
-3.40932e-06
-3.62989e-06
-3.39658e-06
-3.42362e-06
-3.34944e-06
-3.36154e-06
-3.36801e-06
-3.36635e-06
-3.49313e-06
-3.42371e-06
-3.42635e-06
-3.38822e-06
-3.48162e-06
-3.59029e-06
-3.45437e-06
-3.3761e-06
-3.35373e-06
-3.38353e-06
-3.62232e-06
-3.23551e-06
-3.41118e-06
-3.47899e-06
-3.56489e-06
-3.57086e-06
-3.46681e-06
-3.44237e-06
-3.15971e-06
-3.24033e-06
-3.15154e-06
-3.30712e-06
-3.52529e-06
-3.36701e-06
-3.30391e-06
-3.32389e-06
-3.59567e-06
-3.69942e-06
-3.3598e-06
-3.48288e-06
-3.36588e-06
-3.4239e-06
-3.31066e-06
-3.39307e-06
-3.46518e-06
-3.20177e-06
-3.35041e-06
-3.42229e-06
-3.47475e-06
-3.42802e-06
-3.61134e-06
-3.63983e-06
-3.35137e-06
-3.41162e-06
-3.35894e-06
-3.5491e-06
-3.49247e-06
-3.36828e-06
-3.44864e-06
-3.37373e-06
-3.17395e-06
-3.39541e-06
-3.3828e-06
-3.57189e-06
-3.58606e-06
-3.30719e-06
-3.17317e-06
-3.27782e-06
-3.47565e-06
-3.49929e-06
-3.43273e-06
-3.41667e-06
-3.30115e-06
-3.55986e-06
-3.3925e-06
-3.31255e-06
-3.4716e-06
-3.47623e-06
-3.48916e-06
-3.42973e-06
-3.44956e-06
-3.63102e-06
-3.44937e-06
-3.47578e-06
-3.38418e-06
-3.18036e-06
-3.27756e-06
-3.31428e-06
-3.54706e-06
-3.48442e-06
-3.47097e-06
-3.48695e-06
-3.33618e-06
-3.38752e-06
-3.58286e-06
-3.65303e-06
-3.55351e-06
-3.45593e-06
-3.47606e-06
-3.48825e-06
-3.57434e-06
-3.33674e-06
-3.50504e-06