# vtk DataFile Version 2.0
3D Surface
ASCII
DATASET UNSTRUCTURED_GRID
POINTS 14925 float
-1.2e-05 -1.225e-05 -9.27948e-06 
-1.2e-05 -1.2e-05 -9.27169e-06 
-1.225e-05 -1.225e-05 -9.27036e-06 
-1.225e-05 -1.2e-05 -9.26994e-06 
-1.175e-05 -1.225e-05 -9.28561e-06 
-1.175e-05 -1.2e-05 -9.27482e-06 
-1.15e-05 -1.225e-05 -9.27379e-06 
-1.15e-05 -1.2e-05 -9.27232e-06 
-1.125e-05 -1.225e-05 -9.27449e-06 
-1.125e-05 -1.2e-05 -9.28121e-06 
-1.1e-05 -1.225e-05 -9.28259e-06 
-1.1e-05 -1.2e-05 -9.2836e-06 
-1.075e-05 -1.225e-05 -9.28431e-06 
-1.075e-05 -1.2e-05 -9.27569e-06 
-1.05e-05 -1.225e-05 -9.28168e-06 
-1.05e-05 -1.2e-05 -9.27659e-06 
-1.025e-05 -1.225e-05 -9.27878e-06 
-1.025e-05 -1.2e-05 -9.27972e-06 
-1e-05 -1.225e-05 -9.28001e-06 
-1e-05 -1.2e-05 -9.28084e-06 
-9.75e-06 -1.225e-05 -9.26494e-06 
-9.75e-06 -1.2e-05 -9.27346e-06 
-9.5e-06 -1.225e-05 -9.27649e-06 
-9.5e-06 -1.2e-05 -9.27672e-06 
-9.25e-06 -1.225e-05 -9.2785e-06 
-9.25e-06 -1.2e-05 -9.27124e-06 
-9e-06 -1.225e-05 -9.27517e-06 
-9e-06 -1.2e-05 -9.26893e-06 
-8.75e-06 -1.225e-05 -9.27702e-06 
-8.75e-06 -1.2e-05 -9.27901e-06 
-8.5e-06 -1.225e-05 -9.28348e-06 
-8.5e-06 -1.2e-05 -9.28897e-06 
-8.25e-06 -1.225e-05 -9.28707e-06 
-8.25e-06 -1.2e-05 -9.27916e-06 
-8e-06 -1.225e-05 -9.28563e-06 
-8e-06 -1.2e-05 -9.27787e-06 
-7.75e-06 -1.225e-05 -9.28044e-06 
-7.75e-06 -1.2e-05 -9.27995e-06 
-7.5e-06 -1.225e-05 -9.27443e-06 
-7.5e-06 -1.2e-05 -9.27792e-06 
-7.25e-06 -1.225e-05 -9.27409e-06 
-7.25e-06 -1.2e-05 -9.27821e-06 
-7e-06 -1.225e-05 -9.2791e-06 
-7e-06 -1.2e-05 -9.27951e-06 
-6.75e-06 -1.225e-05 -9.28004e-06 
-6.75e-06 -1.2e-05 -9.28272e-06 
-6.5e-06 -1.225e-05 -9.27319e-06 
-6.5e-06 -1.2e-05 -9.27592e-06 
-6.25e-06 -1.225e-05 -9.27662e-06 
-6.25e-06 -1.2e-05 -9.27421e-06 
-6e-06 -1.225e-05 -9.27522e-06 
-6e-06 -1.2e-05 -9.27908e-06 
-5.75e-06 -1.225e-05 -9.27325e-06 
-5.75e-06 -1.2e-05 -9.27874e-06 
-5.5e-06 -1.225e-05 -9.28244e-06 
-5.5e-06 -1.2e-05 -9.28237e-06 
-5.25e-06 -1.225e-05 -9.28474e-06 
-5.25e-06 -1.2e-05 -9.29005e-06 
-5e-06 -1.225e-05 -9.27551e-06 
-5e-06 -1.2e-05 -9.2757e-06 
-4.75e-06 -1.225e-05 -9.27595e-06 
-4.75e-06 -1.2e-05 -9.27644e-06 
-4.5e-06 -1.225e-05 -9.28524e-06 
-4.5e-06 -1.2e-05 -9.28216e-06 
-4.25e-06 -1.225e-05 -9.28115e-06 
-4.25e-06 -1.2e-05 -9.27271e-06 
-4e-06 -1.225e-05 -9.27747e-06 
-4e-06 -1.2e-05 -9.28188e-06 
-3.75e-06 -1.225e-05 -9.27208e-06 
-3.75e-06 -1.2e-05 -9.27087e-06 
-3.5e-06 -1.225e-05 -9.27069e-06 
-3.5e-06 -1.2e-05 -9.27628e-06 
-3.25e-06 -1.225e-05 -9.26684e-06 
-3.25e-06 -1.2e-05 -9.27981e-06 
-3e-06 -1.225e-05 -9.2738e-06 
-3e-06 -1.2e-05 -9.27642e-06 
-2.75e-06 -1.225e-05 -9.28317e-06 
-2.75e-06 -1.2e-05 -9.28466e-06 
-2.5e-06 -1.225e-05 -9.27644e-06 
-2.5e-06 -1.2e-05 -9.27554e-06 
-2.25e-06 -1.225e-05 -9.28087e-06 
-2.25e-06 -1.2e-05 -9.28253e-06 
-2e-06 -1.225e-05 -9.27864e-06 
-2e-06 -1.2e-05 -9.28239e-06 
-1.75e-06 -1.225e-05 -9.28239e-06 
-1.75e-06 -1.2e-05 -9.28656e-06 
-1.5e-06 -1.225e-05 -9.2761e-06 
-1.5e-06 -1.2e-05 -9.27384e-06 
-1.25e-06 -1.225e-05 -9.27201e-06 
-1.25e-06 -1.2e-05 -9.27338e-06 
-1e-06 -1.225e-05 -9.27948e-06 
-1e-06 -1.2e-05 -9.27502e-06 
-7.5e-07 -1.225e-05 -9.28109e-06 
-7.5e-07 -1.2e-05 -9.27841e-06 
-5e-07 -1.225e-05 -9.28365e-06 
-5e-07 -1.2e-05 -9.27813e-06 
-2.5e-07 -1.225e-05 -9.27257e-06 
-2.5e-07 -1.2e-05 -9.28203e-06 
0 -1.225e-05 -9.27428e-06 
0 -1.2e-05 -9.27021e-06 
2.5e-07 -1.225e-05 -9.28312e-06 
2.5e-07 -1.2e-05 -9.27342e-06 
5e-07 -1.225e-05 -9.28643e-06 
5e-07 -1.2e-05 -9.27762e-06 
7.5e-07 -1.225e-05 -9.278e-06 
7.5e-07 -1.2e-05 -9.27421e-06 
1e-06 -1.225e-05 -9.27915e-06 
1e-06 -1.2e-05 -9.28417e-06 
1.25e-06 -1.225e-05 -9.27328e-06 
1.25e-06 -1.2e-05 -9.28738e-06 
1.5e-06 -1.225e-05 -9.27688e-06 
1.5e-06 -1.2e-05 -9.27949e-06 
1.75e-06 -1.225e-05 -9.27029e-06 
1.75e-06 -1.2e-05 -9.27899e-06 
2e-06 -1.225e-05 -9.27815e-06 
2e-06 -1.2e-05 -9.27929e-06 
2.25e-06 -1.225e-05 -9.27671e-06 
2.25e-06 -1.2e-05 -9.27655e-06 
2.5e-06 -1.225e-05 -9.2809e-06 
2.5e-06 -1.2e-05 -9.28021e-06 
2.75e-06 -1.225e-05 -9.27083e-06 
2.75e-06 -1.2e-05 -9.27284e-06 
3e-06 -1.225e-05 -9.27738e-06 
3e-06 -1.2e-05 -9.27389e-06 
3.25e-06 -1.225e-05 -9.27739e-06 
3.25e-06 -1.2e-05 -9.2715e-06 
3.5e-06 -1.225e-05 -9.27738e-06 
3.5e-06 -1.2e-05 -9.27352e-06 
3.75e-06 -1.225e-05 -9.27767e-06 
3.75e-06 -1.2e-05 -9.27624e-06 
4e-06 -1.225e-05 -9.28232e-06 
4e-06 -1.2e-05 -9.27564e-06 
4.25e-06 -1.225e-05 -9.27822e-06 
4.25e-06 -1.2e-05 -9.28417e-06 
4.5e-06 -1.225e-05 -9.27417e-06 
4.5e-06 -1.2e-05 -9.27042e-06 
4.75e-06 -1.225e-05 -9.27627e-06 
4.75e-06 -1.2e-05 -9.27211e-06 
5e-06 -1.225e-05 -9.27307e-06 
5e-06 -1.2e-05 -9.27688e-06 
5.25e-06 -1.225e-05 -9.28019e-06 
5.25e-06 -1.2e-05 -9.27684e-06 
5.5e-06 -1.225e-05 -9.2816e-06 
5.5e-06 -1.2e-05 -9.28124e-06 
5.75e-06 -1.225e-05 -9.27866e-06 
5.75e-06 -1.2e-05 -9.2797e-06 
6e-06 -1.225e-05 -9.28018e-06 
6e-06 -1.2e-05 -9.28224e-06 
6.25e-06 -1.225e-05 -9.281e-06 
6.25e-06 -1.2e-05 -9.28134e-06 
6.5e-06 -1.225e-05 -9.27844e-06 
6.5e-06 -1.2e-05 -9.28687e-06 
6.75e-06 -1.225e-05 -9.26585e-06 
6.75e-06 -1.2e-05 -9.2909e-06 
7e-06 -1.225e-05 -9.27507e-06 
7e-06 -1.2e-05 -9.28138e-06 
7.25e-06 -1.225e-05 -9.27619e-06 
7.25e-06 -1.2e-05 -9.26622e-06 
7.5e-06 -1.225e-05 -9.27271e-06 
7.5e-06 -1.2e-05 -9.26903e-06 
7.75e-06 -1.225e-05 -9.27802e-06 
7.75e-06 -1.2e-05 -9.27662e-06 
8e-06 -1.225e-05 -9.27829e-06 
8e-06 -1.2e-05 -9.27346e-06 
8.25e-06 -1.225e-05 -9.28847e-06 
8.25e-06 -1.2e-05 -9.29078e-06 
8.5e-06 -1.225e-05 -9.27407e-06 
8.5e-06 -1.2e-05 -9.27527e-06 
8.75e-06 -1.225e-05 -9.27429e-06 
8.75e-06 -1.2e-05 -9.27702e-06 
9e-06 -1.225e-05 -9.28106e-06 
9e-06 -1.2e-05 -9.27701e-06 
9.25e-06 -1.225e-05 -9.28062e-06 
9.25e-06 -1.2e-05 -9.28828e-06 
9.5e-06 -1.225e-05 -9.2742e-06 
9.5e-06 -1.2e-05 -9.27895e-06 
9.75e-06 -1.225e-05 -9.28508e-06 
9.75e-06 -1.2e-05 -9.27699e-06 
1e-05 -1.225e-05 -9.27789e-06 
1e-05 -1.2e-05 -9.27839e-06 
1.025e-05 -1.225e-05 -9.28029e-06 
1.025e-05 -1.2e-05 -9.27434e-06 
1.05e-05 -1.225e-05 -9.28079e-06 
1.05e-05 -1.2e-05 -9.27346e-06 
1.075e-05 -1.225e-05 -9.2775e-06 
1.075e-05 -1.2e-05 -9.2741e-06 
1.1e-05 -1.225e-05 -9.27608e-06 
1.1e-05 -1.2e-05 -9.27734e-06 
1.125e-05 -1.225e-05 -9.27449e-06 
1.125e-05 -1.2e-05 -9.2686e-06 
1.15e-05 -1.225e-05 -9.28041e-06 
1.15e-05 -1.2e-05 -9.2772e-06 
1.175e-05 -1.225e-05 -9.28703e-06 
1.175e-05 -1.2e-05 -9.28337e-06 
1.2e-05 -1.225e-05 -9.27269e-06 
1.2e-05 -1.2e-05 -9.2639e-06 
1.225e-05 -1.225e-05 -9.27036e-06 
1.225e-05 -1.2e-05 -9.26994e-06 
-1.2e-05 -1.175e-05 -9.27621e-06 
-1.225e-05 -1.175e-05 -9.28073e-06 
-1.175e-05 -1.175e-05 -9.2774e-06 
-1.15e-05 -1.175e-05 -9.27557e-06 
-1.125e-05 -1.175e-05 -9.26737e-06 
-1.1e-05 -1.175e-05 -9.27791e-06 
-1.075e-05 -1.175e-05 -9.27074e-06 
-1.05e-05 -1.175e-05 -9.2704e-06 
-1.025e-05 -1.175e-05 -9.27512e-06 
-1e-05 -1.175e-05 -9.28011e-06 
-9.75e-06 -1.175e-05 -9.28323e-06 
-9.5e-06 -1.175e-05 -9.27777e-06 
-9.25e-06 -1.175e-05 -9.27539e-06 
-9e-06 -1.175e-05 -9.28248e-06 
-8.75e-06 -1.175e-05 -9.26699e-06 
-8.5e-06 -1.175e-05 -9.27026e-06 
-8.25e-06 -1.175e-05 -9.27438e-06 
-8e-06 -1.175e-05 -9.27189e-06 
-7.75e-06 -1.175e-05 -9.28229e-06 
-7.5e-06 -1.175e-05 -9.28862e-06 
-7.25e-06 -1.175e-05 -9.27782e-06 
-7e-06 -1.175e-05 -9.27526e-06 
-6.75e-06 -1.175e-05 -9.27653e-06 
-6.5e-06 -1.175e-05 -9.27651e-06 
-6.25e-06 -1.175e-05 -9.28912e-06 
-6e-06 -1.175e-05 -9.27765e-06 
-5.75e-06 -1.175e-05 -9.27542e-06 
-5.5e-06 -1.175e-05 -9.27862e-06 
-5.25e-06 -1.175e-05 -9.27945e-06 
-5e-06 -1.175e-05 -9.27614e-06 
-4.75e-06 -1.175e-05 -9.27942e-06 
-4.5e-06 -1.175e-05 -9.27333e-06 
-4.25e-06 -1.175e-05 -9.26639e-06 
-4e-06 -1.175e-05 -9.28408e-06 
-3.75e-06 -1.175e-05 -9.28578e-06 
-3.5e-06 -1.175e-05 -9.28557e-06 
-3.25e-06 -1.175e-05 -9.28406e-06 
-3e-06 -1.175e-05 -9.27082e-06 
-2.75e-06 -1.175e-05 -9.27517e-06 
-2.5e-06 -1.175e-05 -9.27236e-06 
-2.25e-06 -1.175e-05 -9.2777e-06 
-2e-06 -1.175e-05 -9.28646e-06 
-1.75e-06 -1.175e-05 -9.28303e-06 
-1.5e-06 -1.175e-05 -9.27602e-06 
-1.25e-06 -1.175e-05 -9.28264e-06 
-1e-06 -1.175e-05 -9.27234e-06 
-7.5e-07 -1.175e-05 -9.27392e-06 
-5e-07 -1.175e-05 -9.27033e-06 
-2.5e-07 -1.175e-05 -9.28462e-06 
0 -1.175e-05 -9.27985e-06 
2.5e-07 -1.175e-05 -9.28785e-06 
5e-07 -1.175e-05 -9.27557e-06 
7.5e-07 -1.175e-05 -9.27566e-06 
1e-06 -1.175e-05 -9.28755e-06 
1.25e-06 -1.175e-05 -9.27824e-06 
1.5e-06 -1.175e-05 -9.27317e-06 
1.75e-06 -1.175e-05 -9.27912e-06 
2e-06 -1.175e-05 -9.27713e-06 
2.25e-06 -1.175e-05 -9.27596e-06 
2.5e-06 -1.175e-05 -9.28161e-06 
2.75e-06 -1.175e-05 -9.27973e-06 
3e-06 -1.175e-05 -9.27488e-06 
3.25e-06 -1.175e-05 -9.28171e-06 
3.5e-06 -1.175e-05 -9.27867e-06 
3.75e-06 -1.175e-05 -9.27867e-06 
4e-06 -1.175e-05 -9.27594e-06 
4.25e-06 -1.175e-05 -9.27654e-06 
4.5e-06 -1.175e-05 -9.27097e-06 
4.75e-06 -1.175e-05 -9.28686e-06 
5e-06 -1.175e-05 -9.28298e-06 
5.25e-06 -1.175e-05 -9.27429e-06 
5.5e-06 -1.175e-05 -9.27427e-06 
5.75e-06 -1.175e-05 -9.27716e-06 
6e-06 -1.175e-05 -9.28022e-06 
6.25e-06 -1.175e-05 -9.28091e-06 
6.5e-06 -1.175e-05 -9.2757e-06 
6.75e-06 -1.175e-05 -9.2825e-06 
7e-06 -1.175e-05 -9.27612e-06 
7.25e-06 -1.175e-05 -9.27251e-06 
7.5e-06 -1.175e-05 -9.28148e-06 
7.75e-06 -1.175e-05 -9.27752e-06 
8e-06 -1.175e-05 -9.27466e-06 
8.25e-06 -1.175e-05 -9.28393e-06 
8.5e-06 -1.175e-05 -9.28097e-06 
8.75e-06 -1.175e-05 -9.28142e-06 
9e-06 -1.175e-05 -9.27728e-06 
9.25e-06 -1.175e-05 -9.28012e-06 
9.5e-06 -1.175e-05 -9.276e-06 
9.75e-06 -1.175e-05 -9.27913e-06 
1e-05 -1.175e-05 -9.27841e-06 
1.025e-05 -1.175e-05 -9.27653e-06 
1.05e-05 -1.175e-05 -9.27359e-06 
1.075e-05 -1.175e-05 -9.28252e-06 
1.1e-05 -1.175e-05 -9.29008e-06 
1.125e-05 -1.175e-05 -9.28006e-06 
1.15e-05 -1.175e-05 -9.28207e-06 
1.175e-05 -1.175e-05 -9.27867e-06 
1.2e-05 -1.175e-05 -9.27608e-06 
1.225e-05 -1.175e-05 -9.28073e-06 
-1.2e-05 -1.15e-05 -9.28518e-06 
-1.225e-05 -1.15e-05 -9.28042e-06 
-1.175e-05 -1.15e-05 -9.27822e-06 
-1.15e-05 -1.15e-05 -9.27598e-06 
[...]
POINT_DATA 14925
SCALARS Velocities float 1
LOOKUP_TABLE default
-3.37031e-06
-3.28322e-06
-3.56689e-06
-3.36706e-06
-3.24271e-06
-3.27951e-06
-3.52627e-06
-3.32898e-06
-3.67012e-06
-3.35819e-06
-3.46095e-06
-3.46552e-06
-3.25721e-06
-3.34658e-06
-3.30078e-06
-3.43595e-06
-3.32758e-06
-3.37835e-06
-3.43603e-06
-3.57051e-06
-3.44097e-06
-3.51191e-06
-3.38795e-06
-3.43101e-06
-3.60295e-06
-3.59999e-06
-3.38029e-06
-3.42924e-06
-3.41466e-06
-3.39811e-06
-3.45546e-06
-3.33795e-06
-3.44268e-06
-3.50392e-06
-3.44101e-06
-3.27711e-06
-3.50856e-06
-3.69143e-06
-3.4322e-06
-3.41788e-06
-3.75619e-06
-3.59352e-06
-3.46689e-06
-3.76635e-06
-3.33564e-06
-3.61771e-06
-3.30077e-06
-3.45461e-06
-3.39359e-06
-3.45683e-06
-3.24189e-06
-3.45864e-06
-3.2421e-06
-3.51337e-06
-3.56614e-06
-3.6402e-06
-3.27905e-06
-3.45567e-06
-3.54958e-06
-3.33561e-06
-3.51487e-06
-3.48034e-06
-3.33182e-06
-3.43498e-06
-3.53045e-06
-3.53719e-06
-3.34063e-06
-3.44586e-06
-3.33955e-06
-3.45593e-06
-3.54666e-06
-3.48189e-06
-3.3554e-06
-3.35853e-06
-3.39208e-06
-3.38632e-06
-3.36385e-06
-3.42392e-06
-3.67179e-06
-3.46442e-06
-3.43847e-06
-3.33633e-06
-3.3676e-06
-3.54623e-06
-3.40273e-06
-3.49423e-06
-3.37971e-06
-3.51875e-06
-3.37036e-06
-3.6567e-06
-3.37627e-06
-3.61258e-06
-3.39863e-06
-3.30234e-06
-3.43934e-06
-3.22941e-06
-3.32341e-06
-3.40551e-06
-3.51951e-06
-3.42231e-06
-3.63716e-06
-3.38098e-06
-3.21388e-06
-3.26084e-06
-3.41955e-06
-3.4184e-06
-3.38592e-06
-3.22373e-06
-3.47166e-06
-3.45439e-06
-3.46907e-06
-3.58189e-06
-3.25324e-06
-3.43958e-06
-3.35878e-06
-3.55238e-06
-3.27998e-06
-3.43429e-06
-3.30707e-06
-3.36326e-06
-3.58223e-06
-3.39732e-06
-3.4648e-06
-3.36288e-06
-3.4269e-06
-3.50485e-06
-3.61206e-06
-3.42749e-06
-3.40358e-06
-3.49588e-06
-3.45119e-06
-3.38968e-06
-3.45459e-06
-3.45575e-06
-3.587e-06
-3.53575e-06
-3.3077e-06
-3.35301e-06
-3.34202e-06
-3.29723e-06
-3.46514e-06
-3.32729e-06
-3.56398e-06
-3.33996e-06
-3.36408e-06
-3.41805e-06
-3.57823e-06
-3.33101e-06
-3.4956e-06
-3.52268e-06
-3.29158e-06
-3.45085e-06
-3.20884e-06
-3.45268e-06
-3.45635e-06
-3.55005e-06
-3.58665e-06
-3.54428e-06
-3.55649e-06
-3.3648e-06
-3.50411e-06
-3.51057e-06
-3.38874e-06
-3.43772e-06
-3.28057e-06
-3.41934e-06
-3.52155e-06
-3.41702e-06
-3.36567e-06
-3.34995e-06
-3.53397e-06
-3.57568e-06
-3.6554e-06
-3.53672e-06
-3.50483e-06
-3.35592e-06
-3.58773e-06
-3.5965e-06
-3.58107e-06
-3.49352e-06
-3.73118e-06
-3.37321e-06
-3.6265e-06
-3.32233e-06
-3.47648e-06
-3.5321e-06
-3.26989e-06
-3.33942e-06
-3.42755e-06
-3.3891e-06
-3.49459e-06
-3.32944e-06
-3.56313e-06
-3.34061e-06
-3.41958e-06
-3.45059e-06
-3.56689e-06
-3.36706e-06
-3.28235e-06
-3.40995e-06
-3.40652e-06
-3.48612e-06
-3.35087e-06
-3.34604e-06
-3.33449e-06
-3.44803e-06
-3.47587e-06
-3.48295e-06
-3.25693e-06
-3.40407e-06
-3.50244e-06
-3.44001e-06
-3.25046e-06
-3.34365e-06
-3.43398e-06
-3.36297e-06
-3.59876e-06
-3.58823e-06
-3.50323e-06
-3.53304e-06
-3.56234e-06
-3.4338e-06
-3.3936e-06
-3.53648e-06
-3.71519e-06
-3.77709e-06
-3.56046e-06
-3.54808e-06
-3.35974e-06
-3.31306e-06
-3.48514e-06
-3.57514e-06
-3.36032e-06
-3.34556e-06
-3.36792e-06
-3.47338e-06
-3.53583e-06
-3.405e-06
-3.54378e-06
-3.59114e-06
-3.54411e-06
-3.44517e-06
-3.46025e-06
-3.48124e-06
-3.27221e-06
-3.41412e-06
-3.47758e-06
-3.69235e-06
-3.44507e-06
-3.60126e-06
-3.43436e-06
-3.43849e-06
-3.40441e-06
-3.45709e-06
-3.35491e-06
-3.18197e-06
-3.52974e-06
-3.47014e-06
-3.29669e-06
-3.34066e-06
-3.46452e-06
-3.48292e-06
-3.44167e-06
-3.5661e-06
-3.48549e-06
-3.41953e-06
-3.41038e-06
-3.57108e-06
-3.32222e-06
-3.4441e-06
-3.54247e-06
-3.45446e-06
-3.49581e-06
-3.4608e-06
-3.46079e-06
-3.5227e-06
-3.47912e-06
-3.5779e-06
-3.52291e-06
-3.43677e-06
-3.54394e-06
-3.41456e-06
-3.48553e-06
-3.3719e-06
-3.34616e-06
-3.45555e-06
-3.44591e-06
-3.44499e-06
-3.38226e-06
-3.22656e-06
-3.50969e-06
-3.37072e-06
-3.31864e-06
-3.16152e-06
-3.27166e-06
-3.61792e-06
-3.40995e-06
-3.16359e-06
-3.44335e-06
-3.56986e-06
-3.4642e-06
-3.57376e-06
-3.29414e-06
-3.29476e-06
-3.76204e-06
-3.59673e-06
-3.45679e-06
-3.38984e-06
-3.41139e-06
-3.35707e-06
-3.53539e-06
-3.26102e-06
-3.46715e-06
-3.78206e-06
-3.54425e-06
-3.53184e-06
-3.52462e-06
-3.45261e-06
-3.41294e-06
-3.35733e-06
-3.32049e-06
-3.45127e-06
-3.56042e-06
-3.51583e-06
-3.30935e-06
-3.42885e-06
-3.40392e-06
-3.36201e-06
-3.49245e-06
-3.66329e-06
-3.56949e-06
-3.33621e-06
-3.35296e-06
-3.48521e-06
-3.43776e-06
-3.55838e-06
-3.69452e-06
-3.62092e-06
-3.56639e-06
-3.31468e-06
-3.3992e-06
-3.52332e-06
-3.52279e-06
-3.41382e-06
-3.44173e-06
-3.34379e-06
-3.45398e-06
-3.45262e-06
-3.52904e-06
-3.43591e-06
-3.61389e-06
-3.51036e-06
-3.3478e-06
-3.47833e-06
-3.42646e-06
-3.60197e-06
-3.48251e-06
-3.26548e-06
-3.40973e-06
-3.56731e-06
-3.43193e-06
-3.36743e-06
-3.51279e-06
-3.35283e-06
-3.52402e-06
-3.44667e-06
-3.43999e-06
-3.26342e-06
-3.6004e-06
-3.66158e-06
-3.48046e-06
-3.59655e-06
-3.59262e-06
-3.50054e-06
-3.64962e-06
-3.63674e-06
-3.35121e-06
-3.40337e-06
-3.29711e-06
-3.59357e-06
-3.52882e-06
-3.39968e-06
-3.56623e-06
-3.49455e-06
-3.35102e-06
-3.44585e-06
-3.45476e-06
-3.39407e-06
-3.38004e-06
-3.44993e-06
-3.42727e-06
-3.3795e-06
-3.21772e-06
-3.64352e-06
-3.73868e-06
-3.44335e-06
-3.43951e-06
-3.48704e-06
-3.65641e-06
-3.48168e-06
-3.48207e-06
-3.31285e-06
-3.24053e-06
-3.57469e-06
-3.28595e-06
-3.29772e-06
-3.59253e-06
-3.32037e-06
-3.39236e-06
-3.32039e-06
-3.24011e-06
-3.50658e-06
-3.52816e-06
-3.4309e-06
-3.41561e-06
-3.44613e-06
-3.50422e-06
-3.40699e-06
-3.41091e-06
-3.66263e-06
-3.57337e-06
-3.47813e-06
-3.42555e-06
-3.26356e-06
-3.36307e-06
-3.36992e-06
-3.39416e-06
-3.40098e-06
-3.61522e-06
-3.31157e-06
-3.38138e-06
-3.53476e-06
-3.64433e-06
-3.48272e-06
-3.47568e-06
-3.37917e-06
-3.31244e-06
-3.35794e-06
-3.46502e-06
-3.42072e-06
-3.31684e-06
-3.21047e-06
-3.35749e-06
-3.21479e-06
-3.42594e-06
-3.40766e-06
-3.43393e-06
-3.4487e-06
-3.37932e-06
-3.35797e-06
-3.40928e-06
-3.26617e-06
-3.45219e-06
-3.51213e-06
-3.35824e-06
-3.44663e-06
-3.43029e-06
-3.48684e-06
-3.34892e-06
-3.39698e-06
-3.39925e-06
-3.35162e-06
-3.42701e-06
-3.43309e-06
-3.44928e-06
-3.25859e-06
-3.18984e-06
-3.49969e-06
-3.39871e-06
-3.37564e-06
-3.44192e-06
-3.49949e-06
-3.50001e-06
-3.51639e-06
-3.4121e-06
-3.26086e-06
-3.31949e-06
-3.22118e-06
-3.45321e-06
-3.38128e-06
-3.36384e-06
-3.51167e-06
-3.47116e-06
-3.62923e-06
-3.50348e-06
-3.4845e-06
-3.40104e-06
-3.43891e-06
-3.57885e-06
-3.65897e-06
-3.60568e-06
-3.46281e-06
-3.43177e-06
-3.42878e-06
-3.48704e-06
-3.45954e-06
-3.42339e-06
-3.40281e-06
-3.47301e-06
-3.38803e-06
-3.20742e-06
-3.25898e-06
-3.5012e-06
-3.31653e-06
-3.33711e-06
-3.56118e-06
-3.47564e-06
-3.46997e-06
-3.36149e-06
-3.32247e-06
-3.54375e-06
-3.46035e-06
-3.44851e-06
-3.42695e-06
-3.39654e-06
-3.25942e-06
-3.16691e-06
-3.21579e-06
-3.59759e-06
-3.57238e-06
-3.5611e-06
-3.46835e-06
-3.42291e-06
-3.41594e-06
-3.46343e-06
-3.39297e-06
-3.47687e-06
-3.46929e-06
-3.27703e-06
-3.48642e-06
-3.195e-06
-3.47255e-06
-3.60294e-06
-3.44793e-06
-3.43209e-06
-3.44426e-06
-3.3965e-06
-3.47648e-06
-3.44796e-06
-3.25403e-06
-3.38248e-06
-3.52149e-06
-3.60816e-06
-3.38306e-06
-3.39277e-06
-3.32703e-06
-3.49162e-06
-3.42883e-06
-3.41142e-06
-3.64961e-06
-3.25917e-06
-3.32716e-06
-3.52947e-06
-3.22149e-06
-3.3781e-06
-3.38894e-06
-3.37182e-06
-3.39982e-06
-3.32544e-06
-3.2832e-06
-3.43339e-06
-3.69426e-06
-3.42313e-06
-3.42269e-06
-3.3915e-06
-3.53609e-06
-3.52935e-06
-3.32013e-06
-3.40865e-06
-3.61495e-06
-3.52357e-06
-3.46755e-06
-3.40779e-06
-3.27457e-06
-3.2556e-06
-3.43163e-06
-3.34298e-06
-3.52221e-06
-3.39035e-06
-3.32352e-06
-3.38481e-06
-3.53334e-06
-3.5269e-06
-3.47691e-06
-3.48612e-06
-3.29872e-06
-3.18801e-06
-3.35391e-06
-3.30132e-06
-3.35047e-06
-3.32628e-06
-3.37728e-06
-3.409e-06
-3.42339e-06
-3.64019e-06
-3.42959e-06
-3.49276e-06
-3.54557e-06
-3.53163e-06
-3.36768e-06
-3.50602e-06
-3.4455e-06
-3.29179e-06
-3.44654e-06
-3.61047e-06
-3.40354e-06
-3.34493e-06
-3.44484e-06
-3.17791e-06
-3.34201e-06
-3.3766e-06
-3.34052e-06
-3.23011e-06
-3.31733e-06
-3.32305e-06
-3.31957e-06
-3.17084e-06
-3.37482e-06
-3.53481e-06
-3.36903e-06
-3.41591e-06
-3.48854e-06
-3.60555e-06
-3.52725e-06
-3.54162e-06
-3.51971e-06
-3.72697e-06
-3.57989e-06
-3.57594e-06
-3.53038e-06
-3.44604e-06
-3.571e-06
-3.3172e-06
-3.52333e-06
-3.43312e-06
-3.70114e-06
-3.52463e-06
-3.29946e-06
-3.47564e-06
-3.41164e-06
-3.54128e-06
-3.55627e-06
-3.42968e-06
-3.54825e-06
-3.35868e-06
-3.58461e-06
-3.33278e-06
-3.38771e-06
-3.54174e-06
-3.61443e-06
-3.69718e-06
-3.3489e-06
-3.33005e-06
-3.47234e-06
-3.45357e-06
-3.28095e-06
-3.40137e-06
-3.53897e-06
-3.64878e-06
-3.48348e-06
-3.54076e-06
-3.41288e-06
-3.48637e-06
-3.29415e-06
-3.35219e-06
-3.52489e-06
-3.34708e-06
-3.29131e-06
-3.39318e-06
-3.6497e-06
-3.36412e-06
-3.5603e-06
-3.34295e-06
-3.50663e-06
-3.47989e-06
-3.26824e-06
-3.30826e-06
-3.34638e-06
-3.55981e-06
-3.53817e-06
-3.36594e-06
-3.4544e-06
-3.44293e-06
-3.40141e-06
-3.40939e-06
-3.58242e-06
-3.70515e-06
-3.46496e-06
-3.47742e-06
-3.47216e-06
-3.43589e-06
-3.31535e-06
-3.42959e-06
-3.2977e-06
-3.4337e-06
-3.49291e-06
-3.53368e-06
-3.48644e-06
-3.52364e-06
-3.57065e-06
-3.36035e-06
-3.59629e-06
-3.54274e-06
-3.53863e-06
-3.41332e-06
-3.2978e-06
-3.5106e-06
-3.40553e-06
-3.37129e-06
-3.49617e-06
-3.53676e-06
-3.47222e-06
-3.57542e-06
-3.45654e-06
-3.40343e-06
-3.40491e-06
-3.59692e-06
-3.57223e-06
-3.44229e-06
-3.35109e-06
-3.30896e-06
-3.3917e-06
-3.4212e-06
-3.46158e-06
-3.39413e-06
-3.49045e-06
-3.40332e-06
-3.65273e-06
-3.68865e-06
-3.53117e-06
-3.30858e-06
-3.40399e-06
-3.55393e-06
-3.39726e-06
-3.52509e-06
-3.516e-06
-3.45103e-06
-3.42477e-06
-3.38199e-06
-3.38968e-06
-3.39155e-06
-3.3702e-06
-3.54237e-06
-3.40775e-06
-3.61664e-06
-3.50829e-06
-3.54684e-06
-3.49568e-06
-3.51336e-06
-3.60161e-06
-3.30983e-06
-3.15014e-06
-3.48845e-06
-3.49311e-06
-3.23041e-06
-3.22739e-06
-3.34132e-06
-3.56606e-06
-3.5086e-06
-3.56695e-06
-3.49146e-06
-3.55768e-06
-3.51964e-06
-3.5293e-06
-3.17543e-06
-3.28063e-06
-3.30032e-06
-3.30988e-06
-3.55857e-06
-3.46667e-06
-3.45997e-06
-3.40809e-06
-3.61869e-06
-3.51946e-06
-3.48022e-06
-3.4538e-06
-3.44198e-06
-3.49569e-06
-3.48532e-06
-3.43917e-06
-3.55522e-06
-3.48433e-06
-3.48022e-06
-3.40891e-06
-3.57858e-06
-3.5904e-06
-3.51406e-06
-3.58841e-06
-3.5344e-06
-3.51657e-06
-3.26208e-06
-3.4337e-06
-3.51264e-06
-3.41278e-06
-3.41817e-06
-3.4673e-06
-3.24516e-06
-3.53998e-06
-3.2862e-06
-3.35294e-06
-3.32161e-06
-3.37736e-06
-3.41474e-06
-3.36714e-06
-3.30859e-06
-3.4483e-06
-3.40733e-06
-3.46548e-06
-3.56546e-06
-3.5502e-06
-3.39957e-06
-3.29203e-06
-3.551e-06
-3.49892e-06
-3.57199e-06
-3.54304e-06
-3.68364e-06
-3.40576e-06
-3.45161e-06
-3.57855e-06
-3.25412e-06
-3.28254e-06
-3.46323e-06
-3.2527e-06
-3.25823e-06
-3.33809e-06
-3.55656e-06
-3.53116e-06
-3.51572e-06
-3.33425e-06
-3.40894e-06
-3.47697e-06
-3.32944e-06
-3.3435e-06
-3.29047e-06
-3.58071e-06
-3.53752e-06
-3.44305e-06
-3.46649e-06
-3.49747e-06
-3.37843e-06
-3.41675e-06
-3.30186e-06
-3.55743e-06
-3.76705e-06
-3.49398e-06
-3.34246e-06
-3.3181e-06
-3.01592e-06
-3.28979e-06
-3.49104e-06
-3.51521e-06
-3.58534e-06
-3.40934e-06
-3.31572e-06
-3.37348e-06
-3.24141e-06
-3.29801e-06
-3.28505e-06
-3.35332e-06
-3.36785e-06
-3.43169e-06
-3.48795e-06
-3.35672e-06
-3.38669e-06
-3.24027e-06
-3.48276e-06
-3.58021e-06
-3.47118e-06
-3.57315e-06
-3.46668e-06
-3.50906e-06
-3.34582e-06
-3.37672e-06
-3.43558e-06
-3.66952e-06
-3.2549e-06
-3.1946e-06
-3.24437e-06
-3.43504e-06
-3.45726e-06
-3.36318e-06
-3.3689e-06
-3.58017e-06
-3.62307e-06
-3.4534e-06
-3.54792e-06
-3.51917e-06
-3.33269e-06
-3.32376e-06
-3.41278e-06
-3.43245e-06
-3.44176e-06
-3.38992e-06
-3.36985e-06
-3.24286e-06
-3.44025e-06
-3.32811e-06
-3.23548e-06
-3.48146e-06
-3.68661e-06
-3.31092e-06
-3.39985e-06
-3.55415e-06
-3.54633e-06
-3.49784e-06
-3.50935e-06
-3.57665e-06
-3.49233e-06
-3.30379e-06
-3.39138e-06
-3.69199e-06
-3.67772e-06
-3.50122e-06
-3.39177e-06
-3.49735e-06
-3.37899e-06
-3.49241e-06
-3.54637e-06
-3.06235e-06
-3.32669e-06
-3.41011e-06
-3.6065e-06
-3.63176e-06
-3.58011e-06
-3.43843e-06
-3.4894e-06
-3.41978e-06
-3.29664e-06
-3.25979e-06
-3.39917e-06
-3.28081e-06
-3.25274e-06
-3.22085e-06
-3.4823e-06
-3.68431e-06
-3.48737e-06
-3.70637e-06
-3.52855e-06
-3.39719e-06
-3.24004e-06
-3.38039e-06
-3.38685e-06
-3.40218e-06
-3.48329e-06
-3.37871e-06
-3.40121e-06
-3.22082e-06
-3.35349e-06
-3.44338e-06
-3.59075e-06
-3.38217e-06
-3.37474e-06
-3.2694e-06
-3.60003e-06
-3.47278e-06
-3.66611e-06
-3.38645e-06
-3.4586e-06
-3.32532e-06
-3.46669e-06
-3.18346e-06
-3.33558e-06
-3.54741e-06
-3.45581e-06
-3.57804e-06
-3.64009e-06
-3.45139e-06
-3.51332e-06
-3.72697e-06
-3.56389e-06
-3.54237e-06
-3.58088e-06
-3.55547e-06
-3.59667e-06
-3.2992e-06
-3.44597e-06
-3.25283e-06
-3.40403e-06
-3.32069e-06
-3.45904e-06
-3.47032e-06
-3.36126e-06
-3.52484e-06
-3.37193e-06
-3.52979e-06
-3.63234e-06
-3.40226e-06
-3.45137e-06
-3.44176e-06
-3.42406e-06
-3.57637e-06
-3.367e-06
-3.40712e-06
-3.51441e-06
-3.43697e-06
-3.66285e-06
-3.48964e-06
-3.46715e-06
-3.54285e-06
-3.45369e-06
-3.56218e-06
-3.44858e-06
-3.38683e-06
-3.45678e-06
-3.51042e-06
-3.37664e-06
-3.34271e-06
-3.3308e-06
-3.40782e-06
-3.47839e-06
-3.3989e-06
-3.349e-06
-3.31458e-06
-3.44737e-06
-3.45032e-06
-3.39119e-06
-3.48146e-06
-3.36966e-06
-3.32898e-06
-3.18848e-06
-3.28172e-06
-3.46921e-06
-3.37772e-06
-3.52064e-06
-3.49532e-06
-3.53641e-06
-3.65185e-06
-3.59236e-06
-3.35614e-06
-3.38959e-06
-3.37273e-06
-3.49788e-06
-3.53295e-06
-3.41373e-06
-3.3639e-06
-3.47013e-06
-3.33813e-06
-3.36634e-06
-3.43258e-06
-3.47496e-06
-3.45024e-06
-3.53079e-06
-3.52792e-06
-3.53664e-06
-3.47706e-06
-3.39851e-06
-3.50098e-06
-3.44705e-06
-3.32801e-06
-3.44512e-06
-3.43467e-06
-3.44088e-06
-3.35223e-06
-3.50697e-06
-3.60653e-06
-3.39836e-06
-3.54141e-06
-3.36685e-06
-3.39012e-06
-3.44997e-06
-3.35627e-06
-3.33199e-06
-3.33354e-06
-3.24361e-06
-3.31018e-06
-3.511e-06
-3.63888e-06
-3.42022e-06
-3.49338e-06
-3.50787e-06
-3.51001e-06
-3.58606e-06
-3.33264e-06
-3.36549e-06
-3.55027e-06
-3.30842e-06
-3.51693e-06
-3.44468e-06
-3.33373e-06
-3.3476e-06
-3.66184e-06
-3.38679e-06
-3.34426e-06
-3.38182e-06
-3.56401e-06
-3.44246e-06
-3.33726e-06
-3.57637e-06
-3.67747e-06
-3.54292e-06
-3.41548e-06
-3.62949e-06
-3.50667e-06
-3.5636e-06
-3.58889e-06
-3.40397e-06
-3.53352e-06
-3.47831e-06
-3.48486e-06
-3.58434e-06
-3.46303e-06
-3.44234e-06
-3.35551e-06
-3.58634e-06
-3.58553e-06
-3.37218e-06
-3.36421e-06
-3.27547e-06
-3.45937e-06
-3.3543e-06
-3.43257e-06
-3.38671e-06
-3.47961e-06
-3.39064e-06
-3.60064e-06
-3.35288e-06
-3.23654e-06
-3.3154e-06
-3.4045e-06
-3.51096e-06
-3.48406e-06
-3.46603e-06
-3.49351e-06
-3.27846e-06
-3.37188e-06
-3.43548e-06
-3.5451e-06
-3.38058e-06
-3.58141e-06
-3.35798e-06
-3.53768e-06
-3.50635e-06
-3.39435e-06
-3.47161e-06
-3.31678e-06
-3.34534e-06
-3.55276e-06
-3.48641e-06
-3.49136e-06
-3.54601e-06
-3.62624e-06
-3.44366e-06
-3.39978e-06
-3.51583e-06
-3.4285e-06
-3.30297e-06
-3.54966e-06
-3.28533e-06
-3.32067e-06
-3.19069e-06
-3.51979e-06
-3.40649e-06
-3.58587e-06
-3.51838e-06
-3.5413e-06
-3.67615e-06
-3.36632e-06
-3.1091e-06
-3.46129e-06
-3.64465e-06
-3.44838e-06
-3.66055e-06
-3.4912e-06
-3.58326e-06
-3.53919e-06
-3.85773e-06
-3.37904e-06
-3.30484e-06
-3.68682e-06
-3.58397e-06
-3.60429e-06
-3.39775e-06
-3.54796e-06
-3.4678e-06
-3.43036e-06
-3.60536e-06
-3.51513e-06
-3.46686e-06
-3.38008e-06
-3.57555e-06
-3.43829e-06
-3.44712e-06
-3.49424e-06
-3.42603e-06
-3.50398e-06
-3.31215e-06
-3.54292e-06
-3.59662e-06
-3.34765e-06
-3.69314e-06
-3.58418e-06
-3.43434e-06
-3.50695e-06
-3.41881e-06
-3.35433e-06
-3.41491e-06
-3.61579e-06
-3.54984e-06
-3.59266e-06
-3.44042e-06
-3.51319e-06
-3.53634e-06
-3.66034e-06
-3.6935e-06
-3.57243e-06
-3.31643e-06
-3.12435e-06
-3.25793e-06
-3.42624e-06
-3.49684e-06
-3.45502e-06
-3.55982e-06
-3.50245e-06
-3.43908e-06
-3.35049e-06
-3.30461e-06
-3.42972e-06
-3.50211e-06
-3.47128e-06
-3.47476e-06
-3.43222e-06
-3.37547e-06
-3.24487e-06
-3.28558e-06
-3.40281e-06
-3.69707e-06
-3.4656e-06
-3.65091e-06
-3.32819e-06
-3.54255e-06
-3.3986e-06
-3.56859e-06
-3.48026e-06
-3.36296e-06
-3.50848e-06
-3.59629e-06
-3.49182e-06
-3.49362e-06
-3.4201e-06
-3.42435e-06
-3.49514e-06
-3.43378e-06
-3.40712e-06
-3.51907e-06
-3.56313e-06
-3.66608e-06
-3.51537e-06
-3.26217e-06
-3.34031e-06
-3.21015e-06
-3.17577e-06
-3.43483e-06
-3.41697e-06
-3.3685e-06
-3.37803e-06
-3.18805e-06
-3.30584e-06
-3.27542e-06
-3.37903e-06
-3.40279e-06
-3.39738e-06
-3.51162e-06
-3.66558e-06
-3.59645e-06
-3.60988e-06
-3.53555e-06
-3.51616e-06
-3.50583e-06
-3.37007e-06
-3.38422e-06
-3.49437e-06
-3.46491e-06
-3.41114e-06
-3.24134e-06
-3.60868e-06
-3.56325e-06
-3.49746e-06
-3.49799e-06
-3.57685e-06
-3.47407e-06
-3.42492e-06
-3.38439e-06
-3.5274e-06
-3.50416e-06
-3.37422e-06
-3.34765e-06
-3.55631e-06
-3.55362e-06
-3.37463e-06
-3.51717e-06
-3.5712e-06
-3.53231e-06
-3.27814e-06
-3.46351e-06
-3.64619e-06
-3.58796e-06
-3.58345e-06
-3.52848e-06
-3.45652e-06
-3.32209e-06
-3.47056e-06
-3.65172e-06
-3.54404e-06
-3.76064e-06
-3.69203e-06
-3.64655e-06
-3.57675e-06
-3.56154e-06
-3.37766e-06
-3.31375e-06
-3.42742e-06
-3.53327e-06
-3.41919e-06
-3.5666e-06
-3.46326e-06
-3.39488e-06
-3.51847e-06
-3.40177e-06
-3.18754e-06
-3.34094e-06
-3.47526e-06
-3.55556e-06
-3.38084e-06
-3.32201e-06
-3.46796e-06
-3.52057e-06
-3.47295e-06
-3.34207e-06
-3.48896e-06
-3.51718e-06
-3.40243e-06
-3.37839e-06
-3.24808e-06
-3.60212e-06
-3.4256e-06
-3.70268e-06
-3.51856e-06
-3.37436e-06
-3.43122e-06
-3.28329e-06
-3.414e-06
-3.69729e-06
-3.46285e-06
-3.52281e-06
-3.57834e-06
-3.39622e-06
-3.51865e-06
-3.41337e-06
-3.31797e-06
-3.4186e-06
-3.52429e-06
-3.47523e-06
-3.43181e-06
-3.44715e-06
-3.52016e-06
-3.74857e-06
-3.50115e-06
-3.474e-06
-3.32834e-06
-3.26119e-06
-3.43527e-06
-3.30275e-06
-3.37224e-06
-3.61914e-06
-3.42472e-06
-3.38139e-06
-3.52365e-06
-3.36096e-06
-3.25964e-06
-3.41301e-06
-3.43328e-06
-3.37526e-06
-3.30959e-06
-3.56873e-06
-3.75357e-06
-3.5355e-06
-3.48177e-06
-3.52007e-06
-3.39838e-06
-3.35772e-06
-3.41164e-06
-3.48641e-06
-3.60945e-06
-3.51804e-06
-3.55362e-06
-3.34742e-06
-3.48007e-06
-3.22549e-06
-3.38823e-06
-3.41955e-06
-3.538e-06
-3.32786e-06
-3.5146e-06
-3.42817e-06
-3.49579e-06
-3.58071e-06
-3.44053e-06
-3.38235e-06
-3.34005e-06
-3.58175e-06
-3.62086e-06
-3.41563e-06
-3.64794e-06
-3.6231e-06
-3.57826e-06
-3.28479e-06
-3.58143e-06
-3.39901e-06
-3.53347e-06
-3.49457e-06
-3.5497e-06
-3.62739e-06
-3.63413e-06
-3.41864e-06
-3.41089e-06
-3.46665e-06
-3.21766e-06
-3.22706e-06
-3.48174e-06
-3.49057e-06
-3.54096e-06
-3.50928e-06
-3.43641e-06
-3.53641e-06
-3.60557e-06
-3.46077e-06
-3.41191e-06
-3.5033e-06
-3.33511e-06
-3.39564e-06
-3.38627e-06
-3.22477e-06
-3.46166e-06
-3.43195e-06
-3.41838e-06
-3.37882e-06
-3.40886e-06
-3.22828e-06
-3.142e-06
-3.31131e-06
-3.56299e-06
-3.35476e-06
-3.47642e-06
-3.53509e-06
-3.64751e-06
-3.63414e-06
-3.53432e-06
-3.61977e-06
-3.42075e-06
-3.39364e-06
-3.46273e-06
-3.44546e-06
-3.37187e-06
-3.61746e-06
-3.38251e-06
-3.40861e-06
-3.42634e-06
-3.5098e-06
-3.45342e-06
-3.37319e-06
-3.44137e-06
-3.61744e-06
-3.57367e-06
-3.46479e-06
-3.42905e-06
-3.39413e-06
-3.52605e-06
-3.58301e-06
-3.47006e-06
-3.49895e-06
-3.37736e-06
-3.46957e-06
-3.39383e-06
-3.34232e-06
-3.23115e-06
-3.28187e-06
-3.27483e-06
-3.33112e-06
-3.5559e-06
-3.36489e-06
-3.34779e-06
-3.59522e-06
-3.48513e-06
-3.48007e-06
-3.22195e-06
-3.3116e-06
-3.38109e-06
-3.43565e-06
-3.46372e-06
-3.46028e-06
-3.45068e-06
-3.21735e-06
-3.27138e-06
-3.43783e-06
-3.44552e-06
-3.34991e-06
-3.31878e-06
-3.22704e-06
-3.45199e-06
-3.35261e-06
-3.0817e-06
-3.40154e-06
-3.65644e-06
-3.51233e-06
-3.35539e-06
-3.4609e-06
-3.41667e-06
-3.65889e-06
-3.53087e-06
-3.30612e-06
-3.58181e-06
-3.4592e-06
-3.46232e-06
-3.50478e-06
-3.35611e-06
-3.46514e-06
-3.54076e-06
-3.52171e-06
-3.26347e-06
-3.36185e-06
-3.42712e-06
-3.47496e-06
-3.4299e-06
-3.49787e-06
-3.50588e-06
-3.47597e-06
-3.36254e-06
-3.42664e-06
-3.56897e-06
-3.5544e-06
-3.53181e-06
-3.3383e-06
-3.51207e-06
-3.34868e-06
-3.43931e-06
-3.38685e-06
-3.3742e-06
-3.47492e-06
-3.35873e-06
-3.41021e-06
-3.33047e-06
-3.19864e-06
-3.39064e-06