# vtk DataFile Version 2.0
3D Surface
ASCII
DATASET UNSTRUCTURED_GRID
POINTS 14265 float
-1.2e-05 -1.225e-05 -8.07061e-06 
-1.2e-05 -1.2e-05 -8.07032e-06 
-1.225e-05 -1.225e-05 -8.07021e-06 
-1.225e-05 -1.2e-05 -8.07213e-06 
-1.175e-05 -1.225e-05 -8.07494e-06 
-1.175e-05 -1.2e-05 -8.07088e-06 
-1.15e-05 -1.225e-05 -8.07382e-06 
-1.15e-05 -1.2e-05 -8.06933e-06 
-1.125e-05 -1.225e-05 -8.07437e-06 
-1.125e-05 -1.2e-05 -8.0752e-06 
-1.1e-05 -1.225e-05 -8.07324e-06 
-1.1e-05 -1.2e-05 -8.07569e-06 
-1.075e-05 -1.225e-05 -8.07281e-06 
-1.075e-05 -1.2e-05 -8.07227e-06 
-1.05e-05 -1.225e-05 -8.07105e-06 
-1.05e-05 -1.2e-05 -8.07276e-06 
-1.025e-05 -1.225e-05 -8.07304e-06 
-1.025e-05 -1.2e-05 -8.07078e-06 
-1e-05 -1.225e-05 -8.07111e-06 
-1e-05 -1.2e-05 -8.06892e-06 
-9.75e-06 -1.225e-05 -8.07137e-06 
-9.75e-06 -1.2e-05 -8.0701e-06 
-9.5e-06 -1.225e-05 -8.07368e-06 
-9.5e-06 -1.2e-05 -8.07291e-06 
-9.25e-06 -1.225e-05 -8.07202e-06 
-9.25e-06 -1.2e-05 -8.07389e-06 
-9e-06 -1.225e-05 -8.07351e-06 
-9e-06 -1.2e-05 -8.07311e-06 
-8.75e-06 -1.225e-05 -8.07245e-06 
-8.75e-06 -1.2e-05 -8.07356e-06 
-8.5e-06 -1.225e-05 -8.07319e-06 
-8.5e-06 -1.2e-05 -8.0756e-06 
-8.25e-06 -1.225e-05 -8.07202e-06 
-8.25e-06 -1.2e-05 -8.06828e-06 
-8e-06 -1.225e-05 -8.07087e-06 
-8e-06 -1.2e-05 -8.07017e-06 
-7.75e-06 -1.225e-05 -8.07061e-06 
-7.75e-06 -1.2e-05 -8.07386e-06 
-7.5e-06 -1.225e-05 -8.06861e-06 
-7.5e-06 -1.2e-05 -8.07223e-06 
-7.25e-06 -1.225e-05 -8.0707e-06 
-7.25e-06 -1.2e-05 -8.06834e-06 
-7e-06 -1.225e-05 -8.07474e-06 
-7e-06 -1.2e-05 -8.07303e-06 
-6.75e-06 -1.225e-05 -8.07078e-06 
-6.75e-06 -1.2e-05 -8.0741e-06 
-6.5e-06 -1.225e-05 -8.07019e-06 
-6.5e-06 -1.2e-05 -8.07344e-06 
-6.25e-06 -1.225e-05 -8.06812e-06 
-6.25e-06 -1.2e-05 -8.07007e-06 
-6e-06 -1.225e-05 -8.06919e-06 
-6e-06 -1.2e-05 -8.06944e-06 
-5.75e-06 -1.225e-05 -8.07205e-06 
-5.75e-06 -1.2e-05 -8.07281e-06 
-5.5e-06 -1.225e-05 -8.07059e-06 
-5.5e-06 -1.2e-05 -8.07347e-06 
-5.25e-06 -1.225e-05 -8.07418e-06 
-5.25e-06 -1.2e-05 -8.07554e-06 
-5e-06 -1.225e-05 -8.07267e-06 
-5e-06 -1.2e-05 -8.07029e-06 
-4.75e-06 -1.225e-05 -8.07444e-06 
-4.75e-06 -1.2e-05 -8.0704e-06 
-4.5e-06 -1.225e-05 -8.07108e-06 
-4.5e-06 -1.2e-05 -8.07276e-06 
-4.25e-06 -1.225e-05 -8.07432e-06 
-4.25e-06 -1.2e-05 -8.07627e-06 
-4e-06 -1.225e-05 -8.07052e-06 
-4e-06 -1.2e-05 -8.07428e-06 
-3.75e-06 -1.225e-05 -8.0759e-06 
-3.75e-06 -1.2e-05 -8.0718e-06 
-3.5e-06 -1.225e-05 -8.07342e-06 
-3.5e-06 -1.2e-05 -8.07051e-06 
-3.25e-06 -1.225e-05 -8.07161e-06 
-3.25e-06 -1.2e-05 -8.072e-06 
-3e-06 -1.225e-05 -8.06752e-06 
-3e-06 -1.2e-05 -8.07323e-06 
-2.75e-06 -1.225e-05 -8.06984e-06 
-2.75e-06 -1.2e-05 -8.07224e-06 
-2.5e-06 -1.225e-05 -8.07356e-06 
-2.5e-06 -1.2e-05 -8.072e-06 
-2.25e-06 -1.225e-05 -8.07402e-06 
-2.25e-06 -1.2e-05 -8.07718e-06 
-2e-06 -1.225e-05 -8.07072e-06 
-2e-06 -1.2e-05 -8.07693e-06 
-1.75e-06 -1.225e-05 -8.07e-06 
-1.75e-06 -1.2e-05 -8.07395e-06 
-1.5e-06 -1.225e-05 -8.06968e-06 
-1.5e-06 -1.2e-05 -8.07283e-06 
-1.25e-06 -1.225e-05 -8.06938e-06 
-1.25e-06 -1.2e-05 -8.07116e-06 
-1e-06 -1.225e-05 -8.07119e-06 
-1e-06 -1.2e-05 -8.07345e-06 
-7.5e-07 -1.225e-05 -8.07471e-06 
-7.5e-07 -1.2e-05 -8.07062e-06 
-5e-07 -1.225e-05 -8.07454e-06 
-5e-07 -1.2e-05 -8.07245e-06 
-2.5e-07 -1.225e-05 -8.0724e-06 
-2.5e-07 -1.2e-05 -8.07175e-06 
0 -1.225e-05 -8.07212e-06 
0 -1.2e-05 -8.07173e-06 
2.5e-07 -1.225e-05 -8.07334e-06 
2.5e-07 -1.2e-05 -8.07176e-06 
5e-07 -1.225e-05 -8.07328e-06 
5e-07 -1.2e-05 -8.07341e-06 
7.5e-07 -1.225e-05 -8.07441e-06 
7.5e-07 -1.2e-05 -8.07067e-06 
1e-06 -1.225e-05 -8.07366e-06 
1e-06 -1.2e-05 -8.07132e-06 
1.25e-06 -1.225e-05 -8.06981e-06 
1.25e-06 -1.2e-05 -8.0709e-06 
1.5e-06 -1.225e-05 -8.07035e-06 
1.5e-06 -1.2e-05 -8.07135e-06 
1.75e-06 -1.225e-05 -8.07316e-06 
1.75e-06 -1.2e-05 -8.07296e-06 
2e-06 -1.225e-05 -8.07378e-06 
2e-06 -1.2e-05 -8.072e-06 
2.25e-06 -1.225e-05 -8.07321e-06 
2.25e-06 -1.2e-05 -8.07424e-06 
2.5e-06 -1.225e-05 -8.07293e-06 
2.5e-06 -1.2e-05 -8.07321e-06 
2.75e-06 -1.225e-05 -8.0714e-06 
2.75e-06 -1.2e-05 -8.07037e-06 
3e-06 -1.225e-05 -8.07174e-06 
3e-06 -1.2e-05 -8.07114e-06 
3.25e-06 -1.225e-05 -8.06678e-06 
3.25e-06 -1.2e-05 -8.07061e-06 
3.5e-06 -1.225e-05 -8.06913e-06 
3.5e-06 -1.2e-05 -8.07263e-06 
3.75e-06 -1.225e-05 -8.07277e-06 
3.75e-06 -1.2e-05 -8.07723e-06 
4e-06 -1.225e-05 -8.07383e-06 
4e-06 -1.2e-05 -8.07126e-06 
4.25e-06 -1.225e-05 -8.07542e-06 
4.25e-06 -1.2e-05 -8.07251e-06 
4.5e-06 -1.225e-05 -8.07195e-06 
4.5e-06 -1.2e-05 -8.07459e-06 
4.75e-06 -1.225e-05 -8.07281e-06 
4.75e-06 -1.2e-05 -8.07176e-06 
5e-06 -1.225e-05 -8.07738e-06 
5e-06 -1.2e-05 -8.07477e-06 
5.25e-06 -1.225e-05 -8.07167e-06 
5.25e-06 -1.2e-05 -8.07213e-06 
5.5e-06 -1.225e-05 -8.07381e-06 
5.5e-06 -1.2e-05 -8.07516e-06 
5.75e-06 -1.225e-05 -8.06989e-06 
5.75e-06 -1.2e-05 -8.07235e-06 
6e-06 -1.225e-05 -8.06885e-06 
6e-06 -1.2e-05 -8.07263e-06 
6.25e-06 -1.225e-05 -8.06925e-06 
6.25e-06 -1.2e-05 -8.06987e-06 
6.5e-06 -1.225e-05 -8.07554e-06 
6.5e-06 -1.2e-05 -8.07342e-06 
6.75e-06 -1.225e-05 -8.07487e-06 
6.75e-06 -1.2e-05 -8.07536e-06 
7e-06 -1.225e-05 -8.07422e-06 
7e-06 -1.2e-05 -8.07373e-06 
7.25e-06 -1.225e-05 -8.07275e-06 
7.25e-06 -1.2e-05 -8.07357e-06 
7.5e-06 -1.225e-05 -8.07413e-06 
7.5e-06 -1.2e-05 -8.07345e-06 
7.75e-06 -1.225e-05 -8.07521e-06 
7.75e-06 -1.2e-05 -8.06956e-06 
8e-06 -1.225e-05 -8.07159e-06 
8e-06 -1.2e-05 -8.07178e-06 
8.25e-06 -1.225e-05 -8.07034e-06 
8.25e-06 -1.2e-05 -8.07117e-06 
8.5e-06 -1.225e-05 -8.07051e-06 
8.5e-06 -1.2e-05 -8.07122e-06 
8.75e-06 -1.225e-05 -8.06796e-06 
8.75e-06 -1.2e-05 -8.07264e-06 
9e-06 -1.225e-05 -8.06895e-06 
9e-06 -1.2e-05 -8.07313e-06 
9.25e-06 -1.225e-05 -8.07196e-06 
9.25e-06 -1.2e-05 -8.07201e-06 
9.5e-06 -1.225e-05 -8.07338e-06 
9.5e-06 -1.2e-05 -8.06859e-06 
9.75e-06 -1.225e-05 -8.07654e-06 
9.75e-06 -1.2e-05 -8.0705e-06 
1e-05 -1.225e-05 -8.07131e-06 
1e-05 -1.2e-05 -8.06878e-06 
1.025e-05 -1.225e-05 -8.07092e-06 
1.025e-05 -1.2e-05 -8.07185e-06 
1.05e-05 -1.225e-05 -8.07353e-06 
1.05e-05 -1.2e-05 -8.07503e-06 
1.075e-05 -1.225e-05 -8.07055e-06 
1.075e-05 -1.2e-05 -8.07114e-06 
1.1e-05 -1.225e-05 -8.06946e-06 
1.1e-05 -1.2e-05 -8.06957e-06 
1.125e-05 -1.225e-05 -8.07134e-06 
1.125e-05 -1.2e-05 -8.07188e-06 
1.15e-05 -1.225e-05 -8.07447e-06 
1.15e-05 -1.2e-05 -8.0732e-06 
1.175e-05 -1.225e-05 -8.07667e-06 
1.175e-05 -1.2e-05 -8.07718e-06 
1.2e-05 -1.225e-05 -8.07052e-06 
1.2e-05 -1.2e-05 -8.07074e-06 
1.225e-05 -1.225e-05 -8.07021e-06 
1.225e-05 -1.2e-05 -8.07213e-06 
-1.2e-05 -1.175e-05 -8.06981e-06 
-1.225e-05 -1.175e-05 -8.07531e-06 
-1.175e-05 -1.175e-05 -8.07163e-06 
-1.15e-05 -1.175e-05 -8.07108e-06 
-1.125e-05 -1.175e-05 -8.07349e-06 
-1.1e-05 -1.175e-05 -8.07291e-06 
-1.075e-05 -1.175e-05 -8.07117e-06 
-1.05e-05 -1.175e-05 -8.06961e-06 
-1.025e-05 -1.175e-05 -8.0701e-06 
-1e-05 -1.175e-05 -8.06926e-06 
-9.75e-06 -1.175e-05 -8.06989e-06 
-9.5e-06 -1.175e-05 -8.07305e-06 
-9.25e-06 -1.175e-05 -8.07216e-06 
-9e-06 -1.175e-05 -8.0756e-06 
-8.75e-06 -1.175e-05 -8.07128e-06 
-8.5e-06 -1.175e-05 -8.06991e-06 
-8.25e-06 -1.175e-05 -8.06962e-06 
-8e-06 -1.175e-05 -8.07151e-06 
-7.75e-06 -1.175e-05 -8.07405e-06 
-7.5e-06 -1.175e-05 -8.07328e-06 
-7.25e-06 -1.175e-05 -8.07032e-06 
-7e-06 -1.175e-05 -8.06988e-06 
-6.75e-06 -1.175e-05 -8.07156e-06 
-6.5e-06 -1.175e-05 -8.0693e-06 
-6.25e-06 -1.175e-05 -8.07094e-06 
-6e-06 -1.175e-05 -8.07103e-06 
-5.75e-06 -1.175e-05 -8.0721e-06 
-5.5e-06 -1.175e-05 -8.07053e-06 
-5.25e-06 -1.175e-05 -8.07122e-06 
-5e-06 -1.175e-05 -8.07014e-06 
-4.75e-06 -1.175e-05 -8.07157e-06 
-4.5e-06 -1.175e-05 -8.07063e-06 
-4.25e-06 -1.175e-05 -8.06955e-06 
-4e-06 -1.175e-05 -8.07613e-06 
-3.75e-06 -1.175e-05 -8.07227e-06 
-3.5e-06 -1.175e-05 -8.07425e-06 
-3.25e-06 -1.175e-05 -8.07546e-06 
-3e-06 -1.175e-05 -8.07147e-06 
-2.75e-06 -1.175e-05 -8.07156e-06 
-2.5e-06 -1.175e-05 -8.07299e-06 
-2.25e-06 -1.175e-05 -8.07428e-06 
-2e-06 -1.175e-05 -8.07566e-06 
-1.75e-06 -1.175e-05 -8.07161e-06 
-1.5e-06 -1.175e-05 -8.07048e-06 
-1.25e-06 -1.175e-05 -8.07175e-06 
-1e-06 -1.175e-05 -8.07295e-06 
-7.5e-07 -1.175e-05 -8.07134e-06 
-5e-07 -1.175e-05 -8.07235e-06 
-2.5e-07 -1.175e-05 -8.07333e-06 
0 -1.175e-05 -8.0766e-06 
2.5e-07 -1.175e-05 -8.071e-06 
5e-07 -1.175e-05 -8.07433e-06 
7.5e-07 -1.175e-05 -8.0726e-06 
1e-06 -1.175e-05 -8.07199e-06 
1.25e-06 -1.175e-05 -8.07186e-06 
1.5e-06 -1.175e-05 -8.07138e-06 
1.75e-06 -1.175e-05 -8.06993e-06 
2e-06 -1.175e-05 -8.06937e-06 
2.25e-06 -1.175e-05 -8.07257e-06 
2.5e-06 -1.175e-05 -8.07351e-06 
2.75e-06 -1.175e-05 -8.07295e-06 
3e-06 -1.175e-05 -8.07246e-06 
3.25e-06 -1.175e-05 -8.07344e-06 
3.5e-06 -1.175e-05 -8.07234e-06 
3.75e-06 -1.175e-05 -8.07623e-06 
4e-06 -1.175e-05 -8.07017e-06 
4.25e-06 -1.175e-05 -8.07075e-06 
4.5e-06 -1.175e-05 -8.07142e-06 
4.75e-06 -1.175e-05 -8.07518e-06 
5e-06 -1.175e-05 -8.07667e-06 
5.25e-06 -1.175e-05 -8.07333e-06 
5.5e-06 -1.175e-05 -8.06787e-06 
5.75e-06 -1.175e-05 -8.0705e-06 
6e-06 -1.175e-05 -8.07504e-06 
6.25e-06 -1.175e-05 -8.07593e-06 
6.5e-06 -1.175e-05 -8.07192e-06 
6.75e-06 -1.175e-05 -8.07139e-06 
7e-06 -1.175e-05 -8.07309e-06 
7.25e-06 -1.175e-05 -8.07338e-06 
7.5e-06 -1.175e-05 -8.07288e-06 
7.75e-06 -1.175e-05 -8.0726e-06 
8e-06 -1.175e-05 -8.07224e-06 
8.25e-06 -1.175e-05 -8.07113e-06 
8.5e-06 -1.175e-05 -8.07034e-06 
8.75e-06 -1.175e-05 -8.07321e-06 
9e-06 -1.175e-05 -8.07333e-06 
9.25e-06 -1.175e-05 -8.07106e-06 
9.5e-06 -1.175e-05 -8.06957e-06 
9.75e-06 -1.175e-05 -8.0735e-06 
1e-05 -1.175e-05 -8.07233e-06 
1.025e-05 -1.175e-05 -8.07416e-06 
1.05e-05 -1.175e-05 -8.07303e-06 
1.075e-05 -1.175e-05 -8.07288e-06 
1.1e-05 -1.175e-05 -8.07351e-06 
1.125e-05 -1.175e-05 -8.07004e-06 
1.15e-05 -1.175e-05 -8.07027e-06 
1.175e-05 -1.175e-05 -8.07451e-06 
1.2e-05 -1.175e-05 -8.07794e-06 
1.225e-05 -1.175e-05 -8.07531e-06 
-1.2e-05 -1.15e-05 -8.07474e-06 
-1.225e-05 -1.15e-05 -8.07617e-06 
-1.175e-05 -1.15e-05 -8.07091e-06 
-1.15e-05 -1.15e-05 -8.06853e-06 
[...]
POINT_DATA 14265
SCALARS Velocities float 1
LOOKUP_TABLE default
-3.42293e-06
-3.3922e-06
-3.3352e-06
-3.5413e-06
-3.32613e-06
-3.53983e-06
-3.15774e-06
-3.61692e-06
-3.49904e-06
-3.46615e-06
-3.37862e-06
-3.39946e-06
-3.44449e-06
-3.69165e-06
-3.40581e-06
-3.55355e-06
-3.26885e-06
-3.55126e-06
-3.47453e-06
-3.34692e-06
-3.56919e-06
-3.55995e-06
-3.46206e-06
-3.59045e-06
-3.43727e-06
-3.38318e-06
-3.55811e-06
-3.46034e-06
-3.44806e-06
-3.38913e-06
-3.42649e-06
-3.5071e-06
-3.41269e-06
-3.46522e-06
-3.37146e-06
-3.18461e-06
-3.444e-06
-3.21587e-06
-3.26085e-06
-3.47237e-06
-3.44156e-06
-3.71569e-06
-3.48886e-06
-3.53267e-06
-3.44266e-06
-3.30868e-06
-3.3275e-06
-3.47454e-06
-3.3395e-06
-3.47189e-06
-3.47239e-06
-3.32496e-06
-3.56015e-06
-3.45141e-06
-3.62817e-06
-3.56266e-06
-3.43039e-06
-3.43321e-06
-3.39597e-06
-3.45636e-06
-3.58872e-06
-3.61487e-06
-3.37831e-06
-3.54516e-06
-3.35801e-06
-3.4e-06
-3.25949e-06
-3.39947e-06
-3.32348e-06
-3.39566e-06
-3.37681e-06
-3.36572e-06
-3.46146e-06
-3.43478e-06
-3.35115e-06
-3.45673e-06
-3.30751e-06
-3.64883e-06
-3.38777e-06
-3.42122e-06
-3.56809e-06
-3.54507e-06
-3.6377e-06
-3.37218e-06
-3.44932e-06
-3.50791e-06
-3.40974e-06
-3.44792e-06
-3.43355e-06
-3.38819e-06
-3.48275e-06
-3.21683e-06
-3.35726e-06
-3.49499e-06
-3.38951e-06
-3.59062e-06
-3.37853e-06
-3.35606e-06
-3.40631e-06
-3.4003e-06
-3.43388e-06
-3.48566e-06
-3.41764e-06
-3.57266e-06
-3.39528e-06
-3.46725e-06
-3.40461e-06
-3.49292e-06
-3.30182e-06
-3.41402e-06
-3.53259e-06
-3.63173e-06
-3.46294e-06
-3.60355e-06
-3.39395e-06
-3.57987e-06
-3.28445e-06
-3.46148e-06
-3.40455e-06
-3.43194e-06
-3.40023e-06
-3.34584e-06
-3.2671e-06
-3.23979e-06
-3.39884e-06
-3.37065e-06
-3.30691e-06
-3.48574e-06
-3.34015e-06
-3.37379e-06
-3.36542e-06
-3.55284e-06
-3.54016e-06
-3.82584e-06
-3.47948e-06
-3.64543e-06
-3.53221e-06
-3.38686e-06
-3.69056e-06
-3.29592e-06
-3.57403e-06
-3.3878e-06
-3.40784e-06
-3.42079e-06
-3.52259e-06
-3.47918e-06
-3.57605e-06
-3.34353e-06
-3.57392e-06
-3.57299e-06
-3.59984e-06
-3.47876e-06
-3.60392e-06
-3.44229e-06
-3.2785e-06
-3.56764e-06
-3.53169e-06
-3.56948e-06
-3.5256e-06
-3.41507e-06
-3.47501e-06
-3.26529e-06
-3.38622e-06
-3.41023e-06
-3.59338e-06
-3.65685e-06
-3.38744e-06
-3.46147e-06
-3.37695e-06
-3.42706e-06
-3.52798e-06
-3.58348e-06
-3.59443e-06
-3.72093e-06
-3.68097e-06
-3.39089e-06
-3.5318e-06
-3.22227e-06
-3.4185e-06
-3.62044e-06
-3.30757e-06
-3.63687e-06
-3.37899e-06
-3.44273e-06
-3.30534e-06
-3.42646e-06
-3.43961e-06
-3.28683e-06
-3.46597e-06
-3.24e-06
-3.47683e-06
-3.43572e-06
-3.48978e-06
-3.47707e-06
-3.44454e-06
-3.46953e-06
-3.3352e-06
-3.5413e-06
-3.4515e-06
-3.51841e-06
-3.65951e-06
-3.57464e-06
-3.31734e-06
-3.42656e-06
-3.68075e-06
-3.59839e-06
-3.28765e-06
-3.47515e-06
-3.46814e-06
-3.5378e-06
-3.33669e-06
-3.29479e-06
-3.28111e-06
-3.41036e-06
-3.29592e-06
-3.32131e-06
-3.27229e-06
-3.53513e-06
-3.59641e-06
-3.61334e-06
-3.28892e-06
-3.36364e-06
-3.4449e-06
-3.27801e-06
-3.54925e-06
-3.47688e-06
-3.57117e-06
-3.4162e-06
-3.71953e-06
-3.57016e-06
-3.37715e-06
-3.45149e-06
-3.48982e-06
-3.37071e-06
-3.37485e-06
-3.30104e-06
-3.55323e-06
-3.39051e-06
-3.38609e-06
-3.67061e-06
-3.53659e-06
-3.58179e-06
-3.5545e-06
-3.45222e-06
-3.29276e-06
-3.59611e-06
-3.46746e-06
-3.43946e-06
-3.53243e-06
-3.49862e-06
-3.56729e-06
-3.6623e-06
-3.58085e-06
-3.55877e-06
-3.5291e-06
-3.56988e-06
-3.38858e-06
-3.41545e-06
-3.51273e-06
-3.36934e-06
-3.46334e-06
-3.40832e-06
-3.34687e-06
-3.53699e-06
-3.49476e-06
-3.51828e-06
-3.53432e-06
-3.39826e-06
-3.35566e-06
-3.29128e-06
-3.4492e-06
-3.32205e-06
-3.4875e-06
-3.43197e-06
-3.44016e-06
-3.57276e-06
-3.58218e-06
-3.50949e-06
-3.37666e-06
-3.38302e-06
-3.72535e-06
-3.35189e-06
-3.54607e-06
-3.43102e-06
-3.71242e-06
-3.46496e-06
-3.46504e-06
-3.57067e-06
-3.49062e-06
-3.31956e-06
-3.45719e-06
-3.43387e-06
-3.30806e-06
-3.42225e-06
-3.41314e-06
-3.51066e-06
-3.51841e-06
-3.38297e-06
-3.30179e-06
-3.24988e-06
-3.41461e-06
-3.29923e-06
-3.42188e-06
-3.59771e-06
-3.41082e-06
-3.29132e-06
-3.44596e-06
-3.39844e-06
-3.34118e-06
-3.28317e-06
-3.35585e-06
-3.37152e-06
-3.59831e-06
-3.62144e-06
-3.50255e-06
-3.56247e-06
-3.38243e-06
-3.32006e-06
-3.51039e-06
-3.37628e-06
-3.41244e-06
-3.34824e-06
-3.39318e-06
-3.4476e-06
-3.69892e-06
-3.81398e-06
-3.52994e-06
-3.39152e-06
-3.54158e-06
-3.38495e-06
-3.3787e-06
-3.50444e-06
-3.33976e-06
-3.54576e-06
-3.48118e-06
-3.51206e-06
-3.61831e-06
-3.39786e-06
-3.55723e-06
-3.41265e-06
-3.2574e-06
-3.45517e-06
-3.59483e-06
-3.40453e-06
-3.48279e-06
-3.57519e-06
-3.51571e-06
-3.61036e-06
-3.57421e-06
-3.44683e-06
-3.76947e-06
-3.46111e-06
-3.61322e-06
-3.4078e-06
-3.46492e-06
-3.58185e-06
-3.46998e-06
-3.386e-06
-3.50415e-06
-3.57352e-06
-3.4591e-06
-3.26082e-06
-3.18004e-06
-3.2528e-06
-3.15973e-06
-3.64065e-06
-3.52214e-06
-3.43051e-06
-3.36003e-06
-3.49363e-06
-3.50746e-06
-3.54426e-06
-3.30687e-06
-3.6189e-06
-3.60724e-06
-3.47917e-06
-3.37797e-06
-3.37455e-06
-3.54493e-06
-3.71012e-06
-3.68115e-06
-3.66377e-06
-3.67084e-06
-3.38771e-06
-3.40999e-06
-3.52695e-06
-3.47529e-06
-3.37928e-06
-3.51641e-06
-3.40923e-06
-3.38908e-06
-3.1893e-06
-3.22361e-06
-3.45625e-06
-3.34046e-06
-3.30179e-06
-3.41551e-06
-3.30738e-06
-3.42202e-06
-3.42466e-06
-3.41018e-06
-3.48059e-06
-3.57846e-06
-3.40516e-06
-3.41323e-06
-3.41145e-06
-3.49099e-06
-3.48316e-06
-3.4681e-06
-3.38778e-06
-3.7163e-06
-3.5757e-06
-3.47222e-06
-3.44304e-06
-3.50218e-06
-3.50131e-06
-3.41274e-06
-3.46317e-06
-3.58168e-06
-3.47426e-06
-3.42989e-06
-3.2685e-06
-3.57675e-06
-3.57197e-06
-3.55339e-06
-3.66312e-06
-3.65283e-06
-3.46994e-06
-3.56742e-06
-3.28883e-06
-3.22548e-06
-3.40676e-06
-3.38661e-06
-3.49836e-06
-3.36079e-06
-3.54409e-06
-3.42436e-06
-3.56039e-06
-3.39614e-06
-3.30085e-06
-3.36849e-06
-3.29486e-06
-3.61355e-06
-3.28535e-06
-3.39724e-06
-3.40871e-06
-3.3546e-06
-3.50407e-06
-3.40006e-06
-3.56397e-06
-3.49728e-06
-3.51731e-06
-3.33884e-06
-3.44039e-06
-3.49197e-06
-3.53706e-06
-3.30158e-06
-3.32223e-06
-3.55395e-06
-3.28448e-06
-3.16649e-06
-3.30826e-06
-3.44307e-06
-3.26337e-06
-3.58614e-06
-3.83001e-06
-3.43507e-06
-3.52748e-06
-3.46045e-06
-3.53131e-06
-3.45271e-06
-3.3123e-06
-3.39118e-06
-3.42105e-06
-3.63662e-06
-3.26442e-06
-3.5198e-06
-3.50717e-06
-3.42257e-06
-3.5186e-06
-3.27091e-06
-3.60069e-06
-3.65937e-06
-3.57184e-06
-3.48478e-06
-3.43536e-06
-3.37388e-06
-3.62287e-06
-3.6089e-06
-3.57e-06
-3.3413e-06
-3.37658e-06
-3.60349e-06
-3.36363e-06
-3.30738e-06
-3.55874e-06
-3.25543e-06
-3.58798e-06
-3.64536e-06
-3.50945e-06
-3.61278e-06
-3.46825e-06
-3.5142e-06
-3.48784e-06
-3.30674e-06
-3.3008e-06
-3.24788e-06
-3.42522e-06
-3.34651e-06
-3.6062e-06
-3.35643e-06
-3.3713e-06
-3.43774e-06
-3.51841e-06
-3.78983e-06
-3.51876e-06
-3.43443e-06
-3.51188e-06
-3.53607e-06
-3.76406e-06
-3.65192e-06
-3.37923e-06
-3.34888e-06
-3.44613e-06
-3.48643e-06
-3.41172e-06
-3.53894e-06
-3.33874e-06
-3.66869e-06
-3.51515e-06
-3.48857e-06
-3.54822e-06
-3.43637e-06
-3.3929e-06
-3.35503e-06
-3.37655e-06
-3.30348e-06
-3.35551e-06
-3.46483e-06
-3.41132e-06
-3.46189e-06
-3.46195e-06
-3.25237e-06
-3.28255e-06
-3.41593e-06
-3.53527e-06
-3.58996e-06
-3.50529e-06
-3.46669e-06
-3.42606e-06
-3.45963e-06
-3.35897e-06
-3.37191e-06
-3.32175e-06
-3.61019e-06
-3.38283e-06
-3.31835e-06
-3.27827e-06
-3.34661e-06
-3.33525e-06
-3.55269e-06
-3.4629e-06
-3.44443e-06
-3.50065e-06
-3.47818e-06
-3.25831e-06
-3.48677e-06
-3.52912e-06
-3.44034e-06
-3.25233e-06
-3.49673e-06
-3.48755e-06
-3.41041e-06
-3.61176e-06
-3.37957e-06
-3.37514e-06
-3.43988e-06
-3.34567e-06
-3.37589e-06
-3.18037e-06
-3.25178e-06
-3.42542e-06
-3.51311e-06
-3.37683e-06
-3.37708e-06
-3.32153e-06
-3.30813e-06
-3.19446e-06
-3.04213e-06
-3.19359e-06
-3.35138e-06
-3.42861e-06
-3.28946e-06
-3.25543e-06
-3.35464e-06
-3.38231e-06
-3.50023e-06
-3.51867e-06
-3.66465e-06
-3.44509e-06
-3.39762e-06
-3.61136e-06
-3.33736e-06
-3.27553e-06
-3.31243e-06
-3.39831e-06
-3.55898e-06
-3.44814e-06
-3.27983e-06
-3.28377e-06
-3.52996e-06
-3.28507e-06
-3.31056e-06
-3.33562e-06
-3.32391e-06
-3.37855e-06
-3.39701e-06
-3.40632e-06
-3.51654e-06
-3.5046e-06
-3.3261e-06
-3.28494e-06
-3.32034e-06
-3.53016e-06
-3.51355e-06
-3.52653e-06
-3.34649e-06
-3.38161e-06
-3.23417e-06
-3.32901e-06
-3.49259e-06
-3.61132e-06
-3.63492e-06
-3.51616e-06
-3.4385e-06
-3.46884e-06
-3.52743e-06
-3.39282e-06
-3.48876e-06
-3.57196e-06
-3.27712e-06
-3.40951e-06
-3.38382e-06
-3.35605e-06
-3.39405e-06
-3.4288e-06
-3.48556e-06
-3.44466e-06
-3.44406e-06
-3.48758e-06
-3.52038e-06
-3.45079e-06
-3.44515e-06
-3.47204e-06
-3.738e-06
-3.42728e-06
-3.26498e-06
-3.24644e-06
-3.63074e-06
-3.49782e-06
-3.55816e-06
-3.55341e-06
-3.49306e-06
-3.34409e-06
-3.44633e-06
-3.5306e-06
-3.42688e-06
-3.44387e-06
-3.29502e-06
-3.30933e-06
-3.55774e-06
-3.42539e-06
-3.45409e-06
-3.46636e-06
-3.50259e-06
-3.45074e-06
-3.22806e-06
-3.45545e-06
-3.48243e-06
-3.46289e-06
-3.47584e-06
-3.23564e-06
-3.43238e-06
-3.36741e-06
-3.52099e-06
-3.58244e-06
-3.30033e-06
-3.27565e-06
-3.61118e-06
-3.48445e-06
-3.48474e-06
-3.32239e-06
-3.38231e-06
-3.72426e-06
-3.48962e-06
-3.53663e-06
-3.55527e-06
-3.60911e-06
-3.58425e-06
-3.37124e-06
-3.40067e-06
-3.35646e-06
-3.4061e-06
-3.60065e-06
-3.29303e-06
-3.37156e-06
-3.5653e-06
-3.555e-06
-3.31384e-06
-3.37212e-06
-3.42068e-06
-3.21363e-06
-3.03156e-06
-3.49532e-06
-3.59843e-06
-3.34018e-06
-3.54593e-06
-3.3927e-06
-3.33005e-06
-3.53878e-06
-3.37015e-06
-3.39675e-06
-3.35398e-06
-3.39758e-06
-3.54141e-06
-3.49852e-06
-3.39041e-06
-3.33964e-06
-3.43903e-06
-3.47027e-06
-3.4685e-06
-3.55769e-06
-3.34737e-06
-3.38407e-06
-3.5332e-06
-3.47654e-06
-3.42005e-06
-3.466e-06
-3.5979e-06
-3.50531e-06
-3.45072e-06
-3.41096e-06
-3.22596e-06
-3.45211e-06
-3.53214e-06
-3.44644e-06
-3.45002e-06
-3.47401e-06
-3.3647e-06
-3.4376e-06
-3.36473e-06
-3.35643e-06
-3.51384e-06
-3.57904e-06
-3.41418e-06
-3.40492e-06
-3.2861e-06
-3.61756e-06
-3.38005e-06
-3.50666e-06
-3.281e-06
-3.47703e-06
-3.25719e-06
-3.3485e-06
-3.48287e-06
-3.44615e-06
-3.41775e-06
-3.51996e-06
-3.57579e-06
-3.36194e-06
-3.43164e-06
-3.39739e-06
-3.41719e-06
-3.41373e-06
-3.5143e-06
-3.46626e-06
-3.39762e-06
-3.4077e-06
-3.31366e-06
-3.55046e-06
-3.3452e-06
-3.55949e-06
-3.31134e-06
-3.5208e-06
-3.48489e-06
-3.58451e-06
-3.43962e-06
-3.60359e-06
-3.41345e-06
-3.47323e-06
-3.3487e-06
-3.48962e-06
-3.49081e-06
-3.14316e-06
-3.59859e-06
-3.42015e-06
-3.42669e-06
-3.53233e-06
-3.40559e-06
-3.25096e-06
-3.33075e-06
-3.18713e-06
-3.44001e-06
-3.26528e-06
-3.22549e-06
-3.44796e-06
-3.486e-06
-3.32474e-06
-3.47993e-06
-3.46642e-06
-3.50249e-06
-3.50147e-06
-3.61218e-06
-3.63619e-06
-3.49414e-06
-3.53614e-06
-3.38011e-06
-3.49265e-06
-3.48208e-06
-3.26088e-06
-3.52963e-06
-3.717e-06
-3.51453e-06
-3.5112e-06
-3.45621e-06
-3.71419e-06
-3.58187e-06
-3.51032e-06
-3.54315e-06
-3.53888e-06
-3.64333e-06
-3.44088e-06
-3.49426e-06
-3.56514e-06
-3.64794e-06
-3.58705e-06
-3.30914e-06
-3.37102e-06
-3.52105e-06
-3.57051e-06
-3.4185e-06
-3.58893e-06
-3.53639e-06
-3.52913e-06
-3.34353e-06
-3.35885e-06
-3.46579e-06
-3.56376e-06
-3.45486e-06
-3.35537e-06
-3.35367e-06
-3.34795e-06
-3.50235e-06
-3.52079e-06
-3.36341e-06
-3.55351e-06
-3.67078e-06
-3.48907e-06
-3.62755e-06
-3.35121e-06
-3.51793e-06
-3.29481e-06
-3.16908e-06
-3.34422e-06
-3.42585e-06
-3.50772e-06
-3.40032e-06
-3.63856e-06
-3.46561e-06
-3.47769e-06
-3.61666e-06
-3.37397e-06
-3.30514e-06
-3.34257e-06
-3.57953e-06
-3.49657e-06
-3.25123e-06
-3.42738e-06
-3.53886e-06
-3.45129e-06
-3.53676e-06
-3.65678e-06
-3.39195e-06
-3.36385e-06
-3.70058e-06
-3.42412e-06
-3.31578e-06
-3.41974e-06
-3.33578e-06
-3.23395e-06
-3.14316e-06
-3.39217e-06
-3.24645e-06
-3.35498e-06
-3.40531e-06
-3.53973e-06
-3.46301e-06
-3.46146e-06
-3.38801e-06
-3.3942e-06
-3.19638e-06
-3.46084e-06
-3.27706e-06
-3.2625e-06
-3.37092e-06
-3.45658e-06
-3.28361e-06
-3.41024e-06
-3.39222e-06
-3.29602e-06
-3.51776e-06
-3.4842e-06
-3.43687e-06
-3.67035e-06
-3.82165e-06
-3.47244e-06
-3.43124e-06
-3.38028e-06
-3.38897e-06
-3.28092e-06
-3.40734e-06
-3.39395e-06
-3.46354e-06
-3.39352e-06
-3.47207e-06
-3.41109e-06
-3.50458e-06
-3.2612e-06
-3.27048e-06
-3.46405e-06
-3.36348e-06
-3.18309e-06
-3.42351e-06
-3.60037e-06
-3.53028e-06
-3.41273e-06
-3.69273e-06
-3.69231e-06
-3.56711e-06
-3.33596e-06
-3.5083e-06
-3.45467e-06
-3.30769e-06
-3.24412e-06
-3.64961e-06
-3.35417e-06
-3.41544e-06
-3.36081e-06
-3.24147e-06
-3.37546e-06
-3.25961e-06
-3.42586e-06
-3.63448e-06
-3.51561e-06
-3.39429e-06
-3.65859e-06
-3.33103e-06
-3.38149e-06
-3.44091e-06
-3.54565e-06
-3.60794e-06
-3.54141e-06
-3.42205e-06
-3.26674e-06
-3.34465e-06
-3.33082e-06
-3.44823e-06
-3.65058e-06
-3.51782e-06
-3.45015e-06
-3.23112e-06
-3.41481e-06
-3.64747e-06
-3.6653e-06
-3.54388e-06
-3.53364e-06
-3.44885e-06
-3.38095e-06
-3.67149e-06
-3.66298e-06
-3.6293e-06
-3.35037e-06
-3.47344e-06
-3.39302e-06
-3.39985e-06
-3.41691e-06
-3.38497e-06
-3.40658e-06
-3.40701e-06
-3.24645e-06
-3.23838e-06
-3.29699e-06
-3.26475e-06
-3.79022e-06
-3.57972e-06
-3.34382e-06
-3.38364e-06
-3.50848e-06
-3.53145e-06
-3.59859e-06
-3.33049e-06
-3.32231e-06
-3.31144e-06
-3.42607e-06
-3.56822e-06
-3.50198e-06
-3.48737e-06
-3.67038e-06
-3.42838e-06
-3.67105e-06
-3.46369e-06
-3.42787e-06
-3.53761e-06
-3.66976e-06
-3.39218e-06
-3.43709e-06
-3.39689e-06
-3.5588e-06
-3.55751e-06
-3.38893e-06
-3.36412e-06
-3.39557e-06
-3.42158e-06
-3.54258e-06
-3.51241e-06
-3.52543e-06
-3.37101e-06
-3.4435e-06
-3.57975e-06
-3.2923e-06
-3.36963e-06
-3.45271e-06
-3.41396e-06
-3.39523e-06
-3.37186e-06
-3.47048e-06
-3.69059e-06
-3.64489e-06
-3.54653e-06
-3.65638e-06
-3.53015e-06
-3.34357e-06
-3.41443e-06
-3.73605e-06
-3.62943e-06
-3.4481e-06
-3.58308e-06
-3.49145e-06
-3.37318e-06
-3.51507e-06
-3.29246e-06
-3.40587e-06
-3.33167e-06
-3.198e-06
-3.49883e-06
-3.4667e-06
-3.56193e-06
-3.61824e-06
-3.45671e-06
-3.49545e-06
-3.38994e-06
-3.45882e-06
-3.41611e-06
-3.49535e-06
-3.38715e-06
-3.56885e-06
-3.46649e-06
-3.44207e-06
-3.36317e-06
-3.43322e-06
-3.47084e-06
-3.65577e-06
-3.48436e-06
-3.4333e-06
-3.5772e-06
-3.40065e-06
-3.32816e-06
-3.55159e-06
-3.44815e-06
-3.40886e-06
-3.26059e-06
-3.21349e-06
-3.33837e-06
-3.58239e-06
-3.2902e-06
-3.34263e-06
-3.56442e-06
-3.37405e-06
-3.29699e-06
-3.48606e-06
-3.52106e-06
-3.42609e-06
-3.69591e-06
-3.45239e-06
-3.49044e-06
-3.28223e-06
-3.37927e-06
-3.6097e-06
-3.72482e-06
-3.43063e-06
-3.30399e-06
-3.56486e-06
-3.48795e-06
-3.51688e-06
-3.56563e-06
-3.41397e-06
-3.52738e-06
-3.61655e-06
-3.85199e-06
-3.55631e-06
-3.56988e-06
-3.53535e-06
-3.55891e-06
-3.30375e-06
-3.29091e-06
-3.37761e-06
-3.59965e-06
-3.62955e-06
-3.3258e-06
-3.2637e-06
-3.34805e-06
-3.41423e-06
-3.34405e-06
-3.27932e-06
-3.48296e-06
-3.51984e-06
-3.46412e-06
-3.59552e-06
-3.34544e-06
-3.26079e-06
-3.43612e-06
-3.44278e-06
-3.39614e-06
-3.50251e-06
-3.50966e-06
-3.51268e-06
-3.46407e-06
-3.42147e-06
-3.44335e-06
-3.45987e-06
-3.55658e-06
-3.53178e-06
-3.54462e-06
-3.38898e-06
-3.51106e-06
-3.50139e-06
-3.57159e-06
-3.50499e-06
-3.30803e-06
-3.42027e-06
-3.50946e-06
-3.56738e-06
-3.32681e-06
-3.57202e-06
-3.29017e-06
-3.31166e-06
-3.34242e-06
-3.4484e-06
-3.20762e-06
-3.4382e-06
-3.45685e-06
-3.4549e-06
-3.47835e-06
-3.42302e-06
-3.80527e-06
-3.65059e-06
-3.45966e-06
-3.2375e-06
-3.61765e-06
-3.57801e-06
-3.44009e-06
-3.34367e-06
-3.50167e-06
-3.43052e-06
-3.39948e-06
-3.52637e-06
-3.44204e-06
-3.29141e-06
-3.54535e-06
-3.28652e-06
-3.33179e-06
-3.4413e-06
-3.54562e-06
-3.48008e-06
-3.43922e-06
-3.73286e-06
-3.69028e-06
-3.52106e-06
-3.35114e-06
-3.3947e-06
-3.46627e-06
-3.37268e-06
-3.22245e-06
-3.41761e-06
-3.43332e-06
-3.29129e-06
-3.61888e-06
-3.59918e-06
-3.48265e-06
-3.42529e-06
-3.56038e-06
-3.61315e-06
-3.55736e-06
-3.26915e-06
-3.45277e-06
-3.47732e-06
-3.57753e-06
-3.79766e-06
-3.62455e-06
-3.48667e-06
-3.37888e-06
-3.35275e-06
-3.41451e-06
-3.44151e-06
-3.59767e-06
-3.35643e-06
-3.51403e-06
-3.73878e-06
-3.3199e-06
-3.18728e-06
-3.41967e-06
-3.4231e-06
-3.47979e-06
-3.46461e-06
-3.4611e-06
-3.41938e-06
-3.55957e-06
-3.37757e-06
-3.32049e-06
-3.45345e-06
-3.48143e-06
-3.47059e-06
-3.43359e-06
-3.59731e-06
-3.58524e-06
-3.40485e-06
-3.5837e-06
-3.3103e-06
-3.33867e-06
-3.3459e-06
-3.62657e-06
-3.4811e-06
-3.19422e-06
-3.29949e-06
-3.52139e-06
-3.59924e-06
-3.47577e-06
-3.43043e-06
-3.51575e-06
-3.33869e-06
-3.53805e-06
-3.3419e-06
-3.39066e-06
-3.58189e-06
-3.5192e-06
-3.49914e-06
-3.60791e-06
-3.27489e-06
-3.48442e-06
-3.1434e-06
-3.35668e-06
-3.41016e-06
-3.51606e-06
-3.61877e-06
-3.62174e-06
-3.36312e-06
-3.53042e-06
-3.60126e-06
-3.48629e-06
-3.47505e-06
-3.41362e-06
-3.51676e-06
-3.42978e-06
-3.64564e-06
-3.45501e-06
-3.59517e-06
-3.36312e-06
-3.23873e-06
-3.54702e-06
-3.43691e-06
-3.61784e-06
-3.49929e-06
-3.5905e-06
-3.56552e-06
-3.44748e-06
-3.32972e-06
-3.3947e-06
-3.54335e-06
-3.63767e-06
-3.51519e-06
-3.30627e-06
-3.36476e-06
-3.38624e-06
-3.28818e-06
-3.41492e-06
-3.3657e-06
-3.32418e-06
-3.40619e-06
-3.28247e-06
-3.43807e-06
-3.60826e-06
-3.53589e-06
-3.22355e-06
-3.3068e-06
-3.254e-06
-3.25803e-06
-3.49714e-06
-3.59986e-06
-3.5287e-06
-3.29809e-06
-3.51133e-06
-3.36687e-06
-3.46301e-06
-3.55073e-06
-3.6481e-06
-3.70453e-06
-3.64654e-06
-3.42534e-06
-3.39486e-06
-3.41516e-06
-3.50507e-06
-3.43348e-06
-3.27201e-06
-3.52101e-06
-3.55837e-06
-3.52547e-06
-3.3283e-06
-3.53956e-06
-3.4535e-06
-3.42006e-06
-3.41471e-06
-3.44124e-06
-3.53332e-06
-3.48506e-06
-3.38284e-06
-3.7486e-06
-3.45123e-06
-3.34163e-06
-3.31854e-06
-3.74508e-06
-3.43127e-06
-3.45674e-06
-3.65823e-06
-3.42947e-06
-3.53486e-06
-3.34437e-06
-3.43991e-06
-3.35476e-06
-3.41243e-06
-3.51631e-06
-3.49859e-06
-3.4789e-06
-3.56383e-06
-3.39874e-06
-3.5141e-06
-3.43635e-06
-3.40326e-06
-3.42742e-06
-3.36674e-06
-3.52386e-06
-3.49191e-06
-3.34914e-06
-3.6456e-06
-3.40154e-06
-3.49768e-06
-3.51026e-06
-3.48084e-06
-3.68368e-06
-3.58513e-06
-3.43696e-06
-3.47335e-06
-3.35016e-06
-3.39388e-06
-3.44333e-06
-3.4212e-06
-3.6099e-06
-3.47323e-06
-3.60593e-06
-3.49408e-06
-3.46844e-06
-3.69566e-06
-3.33281e-06
-3.38975e-06
-3.35902e-06
-3.3913e-06
-3.63767e-06
-3.53515e-06
-3.70743e-06
-3.48295e-06
-3.26119e-06
-3.16703e-06
-3.61892e-06
-3.30757e-06
-3.58141e-06
-3.47926e-06
-3.31178e-06
-3.43747e-06
-3.38343e-06
-3.28437e-06
-3.39063e-06
-3.51134e-06
-3.3501e-06
-3.55431e-06
-3.46148e-06
-3.37594e-06
-3.46096e-06
-3.49373e-06
-3.28161e-06
-3.42889e-06
-3.44933e-06
-3.54929e-06
-3.40861e-06
-3.41571e-06
-3.45698e-06
-3.45206e-06
-3.34585e-06
-3.2734e-06
-3.57588e-06
-3.58838e-06
-3.46862e-06
-3.34605e-06
-3.40085e-06
-3.39653e-06
-3.34833e-06
-3.44165e-06
-3.28023e-06
-3.46559e-06
-3.59637e-06
-3.61857e-06
-3.54165e-06
-3.64597e-06
-3.26123e-06
-3.49229e-06
-3.33131e-06
-3.59288e-06
-3.50645e-06
-3.41735e-06
-3.45336e-06
-3.46082e-06
-3.4826e-06
-3.32663e-06
-3.58625e-06
-3.33185e-06
-3.31608e-06
-3.27779e-06
-3.41859e-06
-3.44048e-06
-3.54871e-06
-3.39688e-06
-3.4664e-06
-3.48273e-06
-3.6269e-06
-3.4918e-06
-3.58443e-06
-3.35303e-06
-3.42908e-06
-3.49294e-06
-3.47645e-06
-3.52316e-06
-3.58062e-06
-3.13241e-06
-3.63873e-06
-3.46614e-06
-3.51306e-06
-3.29234e-06
-3.40465e-06
-3.33485e-06
-3.46628e-06
-3.36907e-06
-3.52216e-06
-3.24392e-06
-3.3582e-06
-3.36427e-06
-3.3551e-06
-3.3434e-06
-3.4184e-06
-3.42492e-06
-3.42441e-06
-3.52358e-06
-3.4915e-06
-3.39925e-06
-3.38175e-06
-3.72389e-06
-3.59946e-06
-3.70743e-06
-3.4017e-06
-3.74097e-06
-3.30918e-06
-3.38968e-06
-3.30439e-06
-3.22922e-06
-3.36698e-06
-3.45951e-06
-3.28876e-06
-3.33982e-06
-3.39075e-06
-3.41938e-06
-3.52559e-06
-3.38835e-06
-3.43741e-06
-3.61573e-06
-3.68542e-06
-3.53408e-06
-3.46414e-06
-3.44705e-06
-3.35081e-06
-3.20985e-06
-3.59189e-06
-3.42691e-06
-3.56398e-06
-3.5727e-06
-3.35463e-06
-3.30263e-06
-3.23131e-06
-3.46853e-06
-3.32716e-06
-3.40301e-06
-3.30729e-06
-3.35011e-06
-3.35706e-06
-3.57982e-06
-3.54605e-06
-3.19652e-06
-3.51744e-06
-3.50117e-06
-3.59164e-06
-3.48797e-06
-3.61671e-06
-3.42784e-06
-3.616e-06
-3.39495e-06
-3.62725e-06
-3.54296e-06
-3.67692e-06
-3.49302e-06
-3.43864e-06
-3.57277e-06
-3.40627e-06
-3.54306e-06
-3.4895e-06
-3.44768e-06
-3.30803e-06
-3.44252e-06
-3.44112e-06
-3.35753e-06
-3.56664e-06