# vtk DataFile Version 2.0
3D Surface
ASCII
DATASET UNSTRUCTURED_GRID
POINTS 15881 float
-1.2e-05 -1.225e-05 -1.13495e-05 
-1.2e-05 -1.2e-05 -1.13394e-05 
-1.225e-05 -1.225e-05 -1.13359e-05 
-1.225e-05 -1.2e-05 -1.13359e-05 
-1.175e-05 -1.225e-05 -1.13577e-05 
-1.175e-05 -1.2e-05 -1.13378e-05 
-1.15e-05 -1.225e-05 -1.13467e-05 
-1.15e-05 -1.2e-05 -1.13312e-05 
-1.125e-05 -1.225e-05 -1.13465e-05 
-1.125e-05 -1.2e-05 -1.1345e-05 
-1.1e-05 -1.225e-05 -1.1354e-05 
-1.1e-05 -1.2e-05 -1.13452e-05 
-1.075e-05 -1.225e-05 -1.13594e-05 
-1.075e-05 -1.2e-05 -1.13408e-05 
-1.05e-05 -1.225e-05 -1.13473e-05 
-1.05e-05 -1.2e-05 -1.13439e-05 
-1.025e-05 -1.225e-05 -1.13467e-05 
-1.025e-05 -1.2e-05 -1.13493e-05 
-1e-05 -1.225e-05 -1.13422e-05 
-1e-05 -1.2e-05 -1.1346e-05 
-9.75e-06 -1.225e-05 -1.13352e-05 
-9.75e-06 -1.2e-05 -1.13417e-05 
-9.5e-06 -1.225e-05 -1.13405e-05 
-9.5e-06 -1.2e-05 -1.13375e-05 
-9.25e-06 -1.225e-05 -1.13438e-05 
-9.25e-06 -1.2e-05 -1.13422e-05 
-9e-06 -1.225e-05 -1.13439e-05 
-9e-06 -1.2e-05 -1.13558e-05 
-8.75e-06 -1.225e-05 -1.1337e-05 
-8.75e-06 -1.2e-05 -1.13487e-05 
-8.5e-06 -1.225e-05 -1.13398e-05 
-8.5e-06 -1.2e-05 -1.13394e-05 
-8.25e-06 -1.225e-05 -1.13449e-05 
-8.25e-06 -1.2e-05 -1.13382e-05 
-8e-06 -1.225e-05 -1.13471e-05 
-8e-06 -1.2e-05 -1.13537e-05 
-7.75e-06 -1.225e-05 -1.13609e-05 
-7.75e-06 -1.2e-05 -1.13498e-05 
-7.5e-06 -1.225e-05 -1.13419e-05 
-7.5e-06 -1.2e-05 -1.13402e-05 
-7.25e-06 -1.225e-05 -1.13379e-05 
-7.25e-06 -1.2e-05 -1.13435e-05 
-7e-06 -1.225e-05 -1.13498e-05 
-7e-06 -1.2e-05 -1.13543e-05 
-6.75e-06 -1.225e-05 -1.13372e-05 
-6.75e-06 -1.2e-05 -1.13484e-05 
-6.5e-06 -1.225e-05 -1.13367e-05 
-6.5e-06 -1.2e-05 -1.1342e-05 
-6.25e-06 -1.225e-05 -1.13384e-05 
-6.25e-06 -1.2e-05 -1.13443e-05 
-6e-06 -1.225e-05 -1.13349e-05 
-6e-06 -1.2e-05 -1.13433e-05 
-5.75e-06 -1.225e-05 -1.13367e-05 
-5.75e-06 -1.2e-05 -1.13474e-05 
-5.5e-06 -1.225e-05 -1.13568e-05 
-5.5e-06 -1.2e-05 -1.13589e-05 
-5.25e-06 -1.225e-05 -1.13499e-05 
-5.25e-06 -1.2e-05 -1.13709e-05 
-5e-06 -1.225e-05 -1.13417e-05 
-5e-06 -1.2e-05 -1.13512e-05 
-4.75e-06 -1.225e-05 -1.13464e-05 
-4.75e-06 -1.2e-05 -1.13472e-05 
-4.5e-06 -1.225e-05 -1.13597e-05 
-4.5e-06 -1.2e-05 -1.13562e-05 
-4.25e-06 -1.225e-05 -1.13511e-05 
-4.25e-06 -1.2e-05 -1.13395e-05 
-4e-06 -1.225e-05 -1.13518e-05 
-4e-06 -1.2e-05 -1.13452e-05 
-3.75e-06 -1.225e-05 -1.13428e-05 
-3.75e-06 -1.2e-05 -1.13406e-05 
-3.5e-06 -1.225e-05 -1.13345e-05 
-3.5e-06 -1.2e-05 -1.1338e-05 
-3.25e-06 -1.225e-05 -1.13395e-05 
-3.25e-06 -1.2e-05 -1.13523e-05 
-3e-06 -1.225e-05 -1.13455e-05 
-3e-06 -1.2e-05 -1.13512e-05 
-2.75e-06 -1.225e-05 -1.13567e-05 
-2.75e-06 -1.2e-05 -1.13465e-05 
-2.5e-06 -1.225e-05 -1.13436e-05 
-2.5e-06 -1.2e-05 -1.13503e-05 
-2.25e-06 -1.225e-05 -1.13538e-05 
-2.25e-06 -1.2e-05 -1.13536e-05 
-2e-06 -1.225e-05 -1.13574e-05 
-2e-06 -1.2e-05 -1.1356e-05 
-1.75e-06 -1.225e-05 -1.13468e-05 
-1.75e-06 -1.2e-05 -1.1349e-05 
-1.5e-06 -1.225e-05 -1.13479e-05 
-1.5e-06 -1.2e-05 -1.1354e-05 
-1.25e-06 -1.225e-05 -1.13445e-05 
-1.25e-06 -1.2e-05 -1.13532e-05 
-1e-06 -1.225e-05 -1.13559e-05 
-1e-06 -1.2e-05 -1.1349e-05 
-7.5e-07 -1.225e-05 -1.13474e-05 
-7.5e-07 -1.2e-05 -1.13388e-05 
-5e-07 -1.225e-05 -1.13571e-05 
-5e-07 -1.2e-05 -1.13463e-05 
-2.5e-07 -1.225e-05 -1.13503e-05 
-2.5e-07 -1.2e-05 -1.13583e-05 
0 -1.225e-05 -1.13399e-05 
0 -1.2e-05 -1.13475e-05 
2.5e-07 -1.225e-05 -1.13347e-05 
2.5e-07 -1.2e-05 -1.13423e-05 
5e-07 -1.225e-05 -1.13359e-05 
5e-07 -1.2e-05 -1.13349e-05 
7.5e-07 -1.225e-05 -1.13449e-05 
7.5e-07 -1.2e-05 -1.13376e-05 
1e-06 -1.225e-05 -1.13446e-05 
1e-06 -1.2e-05 -1.13369e-05 
1.25e-06 -1.225e-05 -1.13451e-05 
1.25e-06 -1.2e-05 -1.1349e-05 
1.5e-06 -1.225e-05 -1.13547e-05 
1.5e-06 -1.2e-05 -1.13441e-05 
1.75e-06 -1.225e-05 -1.13358e-05 
1.75e-06 -1.2e-05 -1.13395e-05 
2e-06 -1.225e-05 -1.13494e-05 
2e-06 -1.2e-05 -1.13542e-05 
2.25e-06 -1.225e-05 -1.13476e-05 
2.25e-06 -1.2e-05 -1.1351e-05 
2.5e-06 -1.225e-05 -1.13478e-05 
2.5e-06 -1.2e-05 -1.135e-05 
2.75e-06 -1.225e-05 -1.13433e-05 
2.75e-06 -1.2e-05 -1.13471e-05 
3e-06 -1.225e-05 -1.13396e-05 
3e-06 -1.2e-05 -1.134e-05 
3.25e-06 -1.225e-05 -1.13378e-05 
3.25e-06 -1.2e-05 -1.13412e-05 
3.5e-06 -1.225e-05 -1.13428e-05 
3.5e-06 -1.2e-05 -1.13452e-05 
3.75e-06 -1.225e-05 -1.13615e-05 
3.75e-06 -1.2e-05 -1.13483e-05 
4e-06 -1.225e-05 -1.13448e-05 
4e-06 -1.2e-05 -1.13455e-05 
4.25e-06 -1.225e-05 -1.13371e-05 
4.25e-06 -1.2e-05 -1.13548e-05 
4.5e-06 -1.225e-05 -1.13331e-05 
4.5e-06 -1.2e-05 -1.13424e-05 
4.75e-06 -1.225e-05 -1.135e-05 
4.75e-06 -1.2e-05 -1.13473e-05 
5e-06 -1.225e-05 -1.13468e-05 
5e-06 -1.2e-05 -1.13482e-05 
5.25e-06 -1.225e-05 -1.13625e-05 
5.25e-06 -1.2e-05 -1.13491e-05 
5.5e-06 -1.225e-05 -1.13524e-05 
5.5e-06 -1.2e-05 -1.13586e-05 
5.75e-06 -1.225e-05 -1.13429e-05 
5.75e-06 -1.2e-05 -1.13519e-05 
6e-06 -1.225e-05 -1.13485e-05 
6e-06 -1.2e-05 -1.13432e-05 
6.25e-06 -1.225e-05 -1.13555e-05 
6.25e-06 -1.2e-05 -1.13527e-05 
6.5e-06 -1.225e-05 -1.13512e-05 
6.5e-06 -1.2e-05 -1.13573e-05 
6.75e-06 -1.225e-05 -1.13368e-05 
6.75e-06 -1.2e-05 -1.13574e-05 
7e-06 -1.225e-05 -1.13382e-05 
7e-06 -1.2e-05 -1.13375e-05 
7.25e-06 -1.225e-05 -1.13466e-05 
7.25e-06 -1.2e-05 -1.13457e-05 
7.5e-06 -1.225e-05 -1.13445e-05 
7.5e-06 -1.2e-05 -1.13414e-05 
7.75e-06 -1.225e-05 -1.13511e-05 
7.75e-06 -1.2e-05 -1.13439e-05 
8e-06 -1.225e-05 -1.13502e-05 
8e-06 -1.2e-05 -1.13423e-05 
8.25e-06 -1.225e-05 -1.13446e-05 
8.25e-06 -1.2e-05 -1.13495e-05 
8.5e-06 -1.225e-05 -1.13468e-05 
8.5e-06 -1.2e-05 -1.13372e-05 
8.75e-06 -1.225e-05 -1.13577e-05 
8.75e-06 -1.2e-05 -1.13493e-05 
9e-06 -1.225e-05 -1.13658e-05 
9e-06 -1.2e-05 -1.1355e-05 
9.25e-06 -1.225e-05 -1.13502e-05 
9.25e-06 -1.2e-05 -1.13489e-05 
9.5e-06 -1.225e-05 -1.13524e-05 
9.5e-06 -1.2e-05 -1.13445e-05 
9.75e-06 -1.225e-05 -1.13565e-05 
9.75e-06 -1.2e-05 -1.13462e-05 
1e-05 -1.225e-05 -1.13435e-05 
1e-05 -1.2e-05 -1.13412e-05 
1.025e-05 -1.225e-05 -1.13456e-05 
1.025e-05 -1.2e-05 -1.13437e-05 
1.05e-05 -1.225e-05 -1.13472e-05 
1.05e-05 -1.2e-05 -1.13354e-05 
1.075e-05 -1.225e-05 -1.13452e-05 
1.075e-05 -1.2e-05 -1.13422e-05 
1.1e-05 -1.225e-05 -1.13493e-05 
1.1e-05 -1.2e-05 -1.13518e-05 
1.125e-05 -1.225e-05 -1.13477e-05 
1.125e-05 -1.2e-05 -1.13478e-05 
1.15e-05 -1.225e-05 -1.13611e-05 
1.15e-05 -1.2e-05 -1.13478e-05 
1.175e-05 -1.225e-05 -1.13615e-05 
1.175e-05 -1.2e-05 -1.13516e-05 
1.2e-05 -1.225e-05 -1.13417e-05 
1.2e-05 -1.2e-05 -1.13371e-05 
1.225e-05 -1.225e-05 -1.13359e-05 
1.225e-05 -1.2e-05 -1.13359e-05 
-1.2e-05 -1.175e-05 -1.13436e-05 
-1.225e-05 -1.175e-05 -1.13475e-05 
-1.175e-05 -1.175e-05 -1.13334e-05 
-1.15e-05 -1.175e-05 -1.13343e-05 
-1.125e-05 -1.175e-05 -1.13343e-05 
-1.1e-05 -1.175e-05 -1.13369e-05 
-1.075e-05 -1.175e-05 -1.13343e-05 
-1.05e-05 -1.175e-05 -1.13446e-05 
-1.025e-05 -1.175e-05 -1.13345e-05 
-1e-05 -1.175e-05 -1.13453e-05 
-9.75e-06 -1.175e-05 -1.13558e-05 
-9.5e-06 -1.175e-05 -1.13459e-05 
-9.25e-06 -1.175e-05 -1.13441e-05 
-9e-06 -1.175e-05 -1.13464e-05 
-8.75e-06 -1.175e-05 -1.1342e-05 
-8.5e-06 -1.175e-05 -1.13376e-05 
-8.25e-06 -1.175e-05 -1.13389e-05 
-8e-06 -1.175e-05 -1.13482e-05 
-7.75e-06 -1.175e-05 -1.13544e-05 
-7.5e-06 -1.175e-05 -1.13524e-05 
-7.25e-06 -1.175e-05 -1.13649e-05 
-7e-06 -1.175e-05 -1.13457e-05 
-6.75e-06 -1.175e-05 -1.13454e-05 
-6.5e-06 -1.175e-05 -1.13451e-05 
-6.25e-06 -1.175e-05 -1.13643e-05 
-6e-06 -1.175e-05 -1.13518e-05 
-5.75e-06 -1.175e-05 -1.13462e-05 
-5.5e-06 -1.175e-05 -1.1349e-05 
-5.25e-06 -1.175e-05 -1.13611e-05 
-5e-06 -1.175e-05 -1.13472e-05 
-4.75e-06 -1.175e-05 -1.13579e-05 
-4.5e-06 -1.175e-05 -1.13435e-05 
-4.25e-06 -1.175e-05 -1.13418e-05 
-4e-06 -1.175e-05 -1.13405e-05 
-3.75e-06 -1.175e-05 -1.13476e-05 
-3.5e-06 -1.175e-05 -1.13511e-05 
-3.25e-06 -1.175e-05 -1.13532e-05 
-3e-06 -1.175e-05 -1.13412e-05 
-2.75e-06 -1.175e-05 -1.13392e-05 
-2.5e-06 -1.175e-05 -1.1338e-05 
-2.25e-06 -1.175e-05 -1.13426e-05 
-2e-06 -1.175e-05 -1.13532e-05 
-1.75e-06 -1.175e-05 -1.13498e-05 
-1.5e-06 -1.175e-05 -1.13427e-05 
-1.25e-06 -1.175e-05 -1.13542e-05 
-1e-06 -1.175e-05 -1.13515e-05 
-7.5e-07 -1.175e-05 -1.13376e-05 
-5e-07 -1.175e-05 -1.13395e-05 
-2.5e-07 -1.175e-05 -1.13624e-05 
0 -1.175e-05 -1.1361e-05 
2.5e-07 -1.175e-05 -1.13651e-05 
5e-07 -1.175e-05 -1.13372e-05 
7.5e-07 -1.175e-05 -1.13434e-05 
1e-06 -1.175e-05 -1.13507e-05 
1.25e-06 -1.175e-05 -1.13386e-05 
1.5e-06 -1.175e-05 -1.13419e-05 
1.75e-06 -1.175e-05 -1.13472e-05 
2e-06 -1.175e-05 -1.13489e-05 
2.25e-06 -1.175e-05 -1.13366e-05 
2.5e-06 -1.175e-05 -1.13456e-05 
2.75e-06 -1.175e-05 -1.13462e-05 
3e-06 -1.175e-05 -1.13407e-05 
3.25e-06 -1.175e-05 -1.1354e-05 
3.5e-06 -1.175e-05 -1.13522e-05 
3.75e-06 -1.175e-05 -1.13419e-05 
4e-06 -1.175e-05 -1.13374e-05 
4.25e-06 -1.175e-05 -1.13479e-05 
4.5e-06 -1.175e-05 -1.1343e-05 
4.75e-06 -1.175e-05 -1.13573e-05 
5e-06 -1.175e-05 -1.13594e-05 
5.25e-06 -1.175e-05 -1.13584e-05 
5.5e-06 -1.175e-05 -1.13416e-05 
5.75e-06 -1.175e-05 -1.13477e-05 
6e-06 -1.175e-05 -1.13509e-05 
6.25e-06 -1.175e-05 -1.13516e-05 
6.5e-06 -1.175e-05 -1.13476e-05 
6.75e-06 -1.175e-05 -1.13579e-05 
7e-06 -1.175e-05 -1.13421e-05 
7.25e-06 -1.175e-05 -1.13496e-05 
7.5e-06 -1.175e-05 -1.13613e-05 
7.75e-06 -1.175e-05 -1.13568e-05 
8e-06 -1.175e-05 -1.13587e-05 
8.25e-06 -1.175e-05 -1.13537e-05 
8.5e-06 -1.175e-05 -1.13481e-05 
8.75e-06 -1.175e-05 -1.13438e-05 
9e-06 -1.175e-05 -1.13485e-05 
9.25e-06 -1.175e-05 -1.13483e-05 
9.5e-06 -1.175e-05 -1.13508e-05 
9.75e-06 -1.175e-05 -1.13512e-05 
1e-05 -1.175e-05 -1.13441e-05 
1.025e-05 -1.175e-05 -1.13464e-05 
1.05e-05 -1.175e-05 -1.13398e-05 
1.075e-05 -1.175e-05 -1.13538e-05 
1.1e-05 -1.175e-05 -1.13521e-05 
1.125e-05 -1.175e-05 -1.1351e-05 
1.15e-05 -1.175e-05 -1.13444e-05 
1.175e-05 -1.175e-05 -1.13435e-05 
1.2e-05 -1.175e-05 -1.13412e-05 
1.225e-05 -1.175e-05 -1.13475e-05 
-1.2e-05 -1.15e-05 -1.13506e-05 
-1.225e-05 -1.15e-05 -1.13411e-05 
-1.175e-05 -1.15e-05 -1.13418e-05 
-1.15e-05 -1.15e-05 -1.13431e-05 
[...]
POINT_DATA 15881
SCALARS Velocities float 1
LOOKUP_TABLE default
-3.40869e-06
-3.46771e-06
-3.3578e-06
-3.50895e-06
-3.50715e-06
-3.52839e-06
-3.44274e-06
-3.34674e-06
-3.39856e-06
-3.33108e-06
-3.40399e-06
-3.55242e-06
-3.40198e-06
-3.5384e-06
-3.67504e-06
-3.4172e-06
-3.47437e-06
-3.51037e-06
-3.46323e-06
-3.34661e-06
-3.65737e-06
-3.33112e-06
-3.48141e-06
-3.57066e-06
-3.57086e-06
-3.53816e-06
-3.33904e-06
-3.20766e-06
-3.81319e-06
-3.57276e-06
-3.76365e-06
-3.50223e-06
-3.55532e-06
-3.43898e-06
-3.582e-06
-3.27308e-06
-3.31245e-06
-3.34212e-06
-3.68757e-06
-3.49954e-06
-3.48716e-06
-3.49194e-06
-3.40035e-06
-3.4544e-06
-3.25817e-06
-3.50381e-06
-3.41094e-06
-3.34468e-06
-3.55151e-06
-3.32129e-06
-3.64446e-06
-3.59786e-06
-3.36e-06
-3.46448e-06
-3.4572e-06
-3.51886e-06
-3.43923e-06
-3.68241e-06
-3.29012e-06
-3.56187e-06
-3.14864e-06
-3.52222e-06
-3.27447e-06
-3.57298e-06
-3.31055e-06
-3.6121e-06
-3.35719e-06
-3.66242e-06
-3.33359e-06
-3.47191e-06
-3.36271e-06
-3.55965e-06
-3.56647e-06
-3.38566e-06
-3.55752e-06
-3.26662e-06
-3.34201e-06
-3.38281e-06
-3.31725e-06
-3.44633e-06
-3.34483e-06
-3.45204e-06
-3.46363e-06
-3.29518e-06
-3.56969e-06
-3.46824e-06
-3.35065e-06
-3.41279e-06
-3.33754e-06
-3.29269e-06
-3.41555e-06
-3.35763e-06
-3.50716e-06
-3.38397e-06
-3.24581e-06
-3.67823e-06
-3.41415e-06
-3.5798e-06
-3.48257e-06
-3.70315e-06
-3.37958e-06
-3.60326e-06
-3.6309e-06
-3.6072e-06
-3.69821e-06
-3.41387e-06
-3.55886e-06
-3.49302e-06
-3.30926e-06
-3.58967e-06
-2.98289e-06
-3.32386e-06
-3.1738e-06
-3.35426e-06
-3.45765e-06
-3.45621e-06
-3.43354e-06
-3.57606e-06
-3.47014e-06
-3.51041e-06
-3.57503e-06
-3.56874e-06
-3.43837e-06
-3.47901e-06
-3.35439e-06
-3.5326e-06
-3.39955e-06
-3.28191e-06
-3.4215e-06
-3.31155e-06
-3.40704e-06
-3.28916e-06
-3.41463e-06
-3.57669e-06
-3.39618e-06
-3.39826e-06
-3.43009e-06
-3.42579e-06
-3.49582e-06
-3.26823e-06
-3.44498e-06
-3.45913e-06
-3.39529e-06
-3.70595e-06
-3.25003e-06
-3.48257e-06
-3.36704e-06
-3.37739e-06
-3.4421e-06
-3.624e-06
-3.28659e-06
-3.44706e-06
-3.55203e-06
-3.3858e-06
-3.51588e-06
-3.40521e-06
-3.50661e-06
-3.54588e-06
-3.45107e-06
-3.58245e-06
-3.26919e-06
-3.26737e-06
-3.45408e-06
-3.49345e-06
-3.39405e-06
-3.62331e-06
-3.46654e-06
-3.48249e-06
-3.51028e-06
-3.46048e-06
-3.60974e-06
-3.55499e-06
-3.33492e-06
-3.61652e-06
-3.47928e-06
-3.48476e-06
-3.42395e-06
-3.50771e-06
-3.39105e-06
-3.45424e-06
-3.46889e-06
-3.52718e-06
-3.30326e-06
-3.65119e-06
-3.24409e-06
-3.40047e-06
-3.40525e-06
-3.31064e-06
-3.32779e-06
-3.32643e-06
-3.45207e-06
-3.41772e-06
-3.44025e-06
-3.25178e-06
-3.26901e-06
-3.37351e-06
-3.3578e-06
-3.50895e-06
-3.4777e-06
-3.51582e-06
-3.57812e-06
-3.33907e-06
-3.26016e-06
-3.59918e-06
-3.60367e-06
-3.5029e-06
-3.4876e-06
-3.49684e-06
-3.22418e-06
-3.42262e-06
-3.67693e-06
-3.52271e-06
-3.43841e-06
-3.54565e-06
-3.57289e-06
-3.39724e-06
-3.55338e-06
-3.54176e-06
-3.3488e-06
-3.281e-06
-3.18505e-06
-3.45981e-06
-3.35567e-06
-3.58102e-06
-3.6069e-06
-3.5391e-06
-3.38645e-06
-3.37113e-06
-3.40234e-06
-3.77101e-06
-3.50556e-06
-3.52189e-06
-3.74719e-06
-3.48733e-06
-3.49656e-06
-3.32652e-06
-3.37383e-06
-3.43082e-06
-3.45734e-06
-3.38097e-06
-3.52041e-06
-3.49453e-06
-3.34553e-06
-3.44873e-06
-3.42959e-06
-3.64648e-06
-3.70031e-06
-3.6523e-06
-3.58065e-06
-3.2847e-06
-3.37832e-06
-3.51316e-06
-3.70236e-06
-3.53476e-06
-3.51677e-06
-3.44018e-06
-3.38729e-06
-3.52928e-06
-3.76187e-06
-3.52665e-06
-3.38518e-06
-3.29845e-06
-3.20835e-06
-3.13622e-06
-3.61717e-06
-3.31979e-06
-3.27e-06
-3.3445e-06
-3.50925e-06
-3.40729e-06
-3.6103e-06
-3.54577e-06
-3.58229e-06
-3.40921e-06
-3.46758e-06
-3.46417e-06
-3.49834e-06
-3.51637e-06
-3.37941e-06
-3.12926e-06
-3.52159e-06
-3.46857e-06
-3.29162e-06
-3.45769e-06
-3.68034e-06
-3.503e-06
-3.46241e-06
-3.31469e-06
-3.30764e-06
-3.31999e-06
-3.41783e-06
-3.26226e-06
-3.34542e-06
-3.50505e-06
-3.27256e-06
-3.50388e-06
-3.51582e-06
-3.43176e-06
-3.38856e-06
-3.40312e-06
-3.50888e-06
-3.32836e-06
-3.50711e-06
-3.66646e-06
-3.79675e-06
-3.48546e-06
-3.60877e-06
-3.44126e-06
-3.50522e-06
-3.30207e-06
-3.32877e-06
-3.30389e-06
-3.21168e-06
-3.2657e-06
-3.40831e-06
-3.58371e-06
-3.60613e-06
-3.49565e-06
-3.5408e-06
-3.27024e-06
-3.617e-06
-3.38628e-06
-3.45749e-06
-3.47591e-06
-3.42768e-06
-3.13721e-06
-3.10815e-06
-3.23005e-06
-3.63122e-06
-3.52736e-06
-3.57008e-06
-3.48483e-06
-3.47989e-06
-3.37449e-06
-3.35382e-06
-3.44486e-06
-3.43372e-06
-3.51282e-06
-3.31074e-06
-3.35607e-06
-3.36465e-06
-3.38216e-06
-3.52715e-06
-3.53689e-06
-3.50993e-06
-3.34129e-06
-3.69078e-06
-3.68918e-06
-3.29587e-06
-3.56886e-06
-3.62888e-06
-3.34476e-06
-3.11506e-06
-3.40822e-06
-3.65765e-06
-3.58236e-06
-3.4583e-06
-3.23108e-06
-3.28408e-06
-3.40411e-06
-3.36441e-06
-3.29589e-06
-3.40028e-06
-3.56948e-06
-3.36483e-06
-3.41517e-06
-3.3576e-06
-3.3032e-06
-3.33446e-06
-3.48836e-06
-3.41545e-06
-3.64809e-06
-3.44227e-06
-3.20387e-06
-3.39478e-06
-3.41401e-06
-3.56864e-06
-3.50087e-06
-3.45691e-06
-3.70558e-06
-3.5601e-06
-3.3682e-06
-3.34728e-06
-3.65913e-06
-3.56632e-06
-3.64863e-06
-3.35814e-06
-3.45148e-06
-3.40216e-06
-3.49581e-06
-3.4856e-06
-3.48433e-06
-3.40521e-06
-3.19438e-06
-3.33349e-06
-3.38856e-06
-3.57361e-06
-3.45851e-06
-3.2689e-06
-3.51687e-06
-3.59236e-06
-3.50325e-06
-3.56726e-06
-3.53742e-06
-3.24874e-06
-3.35832e-06
-3.0894e-06
-3.65174e-06
-3.50285e-06
-3.40068e-06
-3.30428e-06
-3.18885e-06
-3.4506e-06
-3.59631e-06
-3.49991e-06
-3.56784e-06
-3.64068e-06
-3.59482e-06
-3.34398e-06
-3.33188e-06
-3.28081e-06
-3.47145e-06
-3.67428e-06
-3.53298e-06
-3.2888e-06
-3.40516e-06
-3.3691e-06
-3.65661e-06
-3.3849e-06
-3.43593e-06
-3.33554e-06
-3.2815e-06
-3.13112e-06
-3.46959e-06
-3.28518e-06
-3.28756e-06
-3.65226e-06
-3.33276e-06
-3.5105e-06
-3.61233e-06
-3.36993e-06
-3.33382e-06
-3.42549e-06
-3.4903e-06
-3.33847e-06
-3.30843e-06
-3.38989e-06
-3.33242e-06
-3.36195e-06
-3.63393e-06
-3.58723e-06
-3.36842e-06
-3.33436e-06
-3.54812e-06
-3.53908e-06
-3.286e-06
-3.44975e-06
-3.45371e-06
-3.4431e-06
-3.54358e-06
-3.29422e-06
-3.48517e-06
-3.4325e-06
-3.36282e-06
-3.40713e-06
-3.34932e-06
-3.12845e-06
-3.45866e-06
-3.58329e-06
-3.61804e-06
-3.56849e-06
-3.50635e-06
-3.38678e-06
-3.32184e-06
-3.39037e-06
-3.58938e-06
-3.3829e-06
-3.44424e-06
-3.62299e-06
-3.4066e-06
-3.54351e-06
-3.51846e-06
-3.33258e-06
-3.43815e-06
-3.34303e-06
-3.34253e-06
-3.36531e-06
-3.41457e-06
-3.44787e-06
-3.3989e-06
-3.41859e-06
-3.45417e-06
-3.40789e-06
-3.22589e-06
-3.45851e-06
-3.42066e-06
-3.36648e-06
-3.27802e-06
-3.40175e-06
-3.63338e-06
-3.33961e-06
-3.53688e-06
-3.42837e-06
-3.52333e-06
-3.42189e-06
-3.22519e-06
-3.61552e-06
-3.66358e-06
-3.4659e-06
-3.40645e-06
-3.32123e-06
-3.43273e-06
-3.37112e-06
-3.55761e-06
-3.5061e-06
-3.52866e-06
-3.48004e-06
-3.45934e-06
-3.49869e-06
-3.41483e-06
-3.50772e-06
-3.7138e-06
-3.58419e-06
-3.55166e-06
-3.47368e-06
-3.47056e-06
-3.34113e-06
-3.44808e-06
-3.21636e-06
-3.41731e-06
-3.56545e-06
-3.51169e-06
-3.51309e-06
-3.37791e-06
-3.3125e-06
-3.25415e-06
-3.50114e-06
-3.64349e-06
-3.31466e-06
-3.28894e-06
-3.39756e-06
-3.4574e-06
-3.36591e-06
-3.58557e-06
-3.62868e-06
-3.41349e-06
-3.49397e-06
-3.2661e-06
-3.32424e-06
-3.38457e-06
-3.39309e-06
-3.56173e-06
-3.48186e-06
-3.4021e-06
-3.28949e-06
-3.52479e-06
-3.50162e-06
-3.2625e-06
-3.23765e-06
-3.28553e-06
-3.58036e-06
-3.50671e-06
-3.59664e-06
-3.24044e-06
-3.27001e-06
-3.28248e-06
-3.35516e-06
-3.56204e-06
-3.5814e-06
-3.6014e-06
-3.42312e-06
-3.34328e-06
-3.33721e-06
-3.48996e-06
-3.311e-06
-3.50862e-06
-3.38337e-06
-3.4107e-06
-3.4283e-06
-3.51419e-06
-3.60218e-06
-3.46184e-06
-3.26315e-06
-3.35359e-06
-3.59446e-06
-3.40313e-06
-3.22601e-06
-3.37766e-06
-3.40607e-06
-3.55427e-06
-3.56625e-06
-3.52225e-06
-3.43968e-06
-3.36648e-06
-3.50946e-06
-3.35602e-06
-3.32634e-06
-3.66485e-06
-3.6806e-06
-3.4647e-06
-3.46886e-06
-3.13127e-06
-3.39382e-06
-3.6087e-06
-3.42183e-06
-3.35328e-06
-3.18922e-06
-3.24012e-06
-3.60187e-06
-3.43361e-06
-3.52936e-06
-3.40509e-06
-3.43237e-06
-3.50592e-06
-3.27412e-06
-3.50872e-06
-3.46543e-06
-3.31741e-06
-3.31567e-06
-3.37829e-06
-3.42577e-06
-3.32756e-06
-3.45026e-06
-3.45414e-06
-3.39692e-06
-3.57218e-06
-3.42167e-06
-3.20837e-06
-3.42842e-06
-3.42313e-06
-3.34812e-06
-3.51304e-06
-3.40027e-06
-3.37675e-06
-3.23973e-06
-3.4888e-06
-3.40128e-06
-3.47966e-06
-3.47643e-06
-3.52434e-06
-3.47844e-06
-3.34122e-06
-3.43103e-06
-3.53156e-06
-3.50757e-06
-3.47091e-06
-3.42778e-06
-3.35672e-06
-3.42425e-06
-3.27161e-06
-3.43099e-06
-3.34162e-06
-3.25277e-06
-3.36241e-06
-3.435e-06
-3.49152e-06
-3.38651e-06
-3.26179e-06
-3.32766e-06
-3.62187e-06
-3.40451e-06
-3.57826e-06
-3.27083e-06
-3.34372e-06
-3.43584e-06
-3.47499e-06
-3.46948e-06
-3.54505e-06
-3.4856e-06
-3.25703e-06
-3.16614e-06
-3.45174e-06
-3.60445e-06
-3.53541e-06
-3.63503e-06
-3.44059e-06
-3.44479e-06
-3.56082e-06
-3.46459e-06
-3.34909e-06
-3.35943e-06
-3.52517e-06
-3.47862e-06
-3.41431e-06
-3.40882e-06
-3.70274e-06
-3.51655e-06
-3.71591e-06
-3.50615e-06
-3.55724e-06
-3.7333e-06
-3.39948e-06
-3.35602e-06
-3.49108e-06
-3.38321e-06
-3.38135e-06
-3.48106e-06
-3.47505e-06
-3.45348e-06
-3.35597e-06
-3.30755e-06
-3.25705e-06
-3.42828e-06
-3.41695e-06
-3.61744e-06
-3.34097e-06
-3.28386e-06
-3.46728e-06
-3.44772e-06
-3.65587e-06
-3.3373e-06
-3.36804e-06
-3.5701e-06
-3.38528e-06
-3.38597e-06
-3.54908e-06
-3.56396e-06
-3.4292e-06
-3.52929e-06
-3.34835e-06
-3.16541e-06
-3.46615e-06
-3.37709e-06
-3.11959e-06
-3.44744e-06
-3.22965e-06
-3.12987e-06
-3.33276e-06
-3.42102e-06
-3.44159e-06
-3.40039e-06
-3.31854e-06
-3.39655e-06
-3.24787e-06
-3.28863e-06
-3.3568e-06
-3.54024e-06
-3.59534e-06
-3.55196e-06
-3.66808e-06
-3.51145e-06
-3.41499e-06
-3.33013e-06
-3.35829e-06
-3.55755e-06
-3.33143e-06
-3.4566e-06
-3.4286e-06
-3.27238e-06
-3.29631e-06
-3.26487e-06
-3.2123e-06
-3.43362e-06
-3.40428e-06
-3.41561e-06
-3.63273e-06
-3.52689e-06
-3.49674e-06
-3.35884e-06
-3.43568e-06
-3.35573e-06
-3.32564e-06
-3.43594e-06
-3.3886e-06
-3.68626e-06
-3.55653e-06
-3.26101e-06
-3.32839e-06
-3.47375e-06
-3.36047e-06
-3.53499e-06
-3.65136e-06
-3.66268e-06
-3.41454e-06
-3.33133e-06
-3.1646e-06
-3.40282e-06
-3.42376e-06
-3.3076e-06
-3.3944e-06
-3.48675e-06
-3.54847e-06
-3.46321e-06
-3.41109e-06
-3.50748e-06
-3.60454e-06
-3.62729e-06
-3.4801e-06
-3.41586e-06
-3.51585e-06
-3.54958e-06
-3.38321e-06
-3.22292e-06
-3.453e-06
-3.33947e-06
-3.34554e-06
-3.36174e-06
-3.43322e-06
-3.4241e-06
-3.50397e-06
-3.54515e-06
-3.396e-06
-3.42505e-06
-3.36663e-06
-3.41111e-06
-3.22289e-06
-3.3716e-06
-3.14718e-06
-3.45191e-06
-3.45651e-06
-3.41516e-06
-3.34861e-06
-3.39408e-06
-3.44947e-06
-3.46578e-06
-3.52355e-06
-3.31285e-06
-3.56875e-06
-3.5966e-06
-3.51929e-06
-3.3701e-06
-3.40955e-06
-3.2719e-06
-3.35587e-06
-3.35591e-06
-3.36857e-06
-3.56367e-06
-3.57177e-06
-3.49817e-06
-3.6353e-06
-3.52664e-06
-3.38786e-06
-3.42292e-06
-3.38231e-06
-3.41596e-06
-3.3312e-06
-3.53384e-06
-3.38384e-06
-3.46994e-06
-3.45021e-06
-3.5774e-06
-3.38185e-06
-3.42468e-06
-3.50153e-06
-3.4936e-06
-3.35761e-06
-3.23815e-06
-3.39472e-06
-3.39566e-06
-3.60379e-06
-3.55325e-06
-3.63922e-06
-3.57448e-06
-3.60066e-06
-3.60171e-06
-3.51671e-06
-3.44252e-06
-3.29754e-06
-3.57472e-06
-3.46406e-06
-3.47108e-06
-3.39737e-06
-3.41545e-06
-3.4748e-06
-3.67295e-06
-3.53029e-06
-3.23574e-06
-3.32226e-06
-3.61179e-06
-3.5155e-06
-3.4575e-06
-3.29282e-06
-3.33786e-06
-3.21943e-06
-3.47781e-06
-3.38994e-06
-3.39266e-06
-3.52793e-06
-3.44477e-06
-3.42384e-06
-3.46116e-06
-3.61888e-06
-3.28426e-06
-3.26962e-06
-3.58165e-06
-3.48834e-06
-3.32878e-06
-3.21908e-06
-3.48094e-06
-3.66309e-06
-3.453e-06
-3.42692e-06
-3.4442e-06
-3.48226e-06
-3.57839e-06
-3.57998e-06
-3.54351e-06
-3.54093e-06
-3.27716e-06
-3.46074e-06
-3.46231e-06
-3.18757e-06
-3.18455e-06
-3.25252e-06
-3.33025e-06
-3.47821e-06
-3.3817e-06
-3.41195e-06
-3.51403e-06
-3.45167e-06
-3.32007e-06
-3.46939e-06
-3.58746e-06
-3.49173e-06
-3.30681e-06
-3.5531e-06
-3.49671e-06
-3.42217e-06
-3.63371e-06
-3.42518e-06
-3.31159e-06
-3.43742e-06
-3.54656e-06
-3.54762e-06
-3.33546e-06
-3.38384e-06
-3.64634e-06
-3.49079e-06
-3.73195e-06
-3.5006e-06
-3.35666e-06
-3.27403e-06
-3.37545e-06
-3.51201e-06
-3.35162e-06
-3.51174e-06
-3.51158e-06
-3.62683e-06
-3.43368e-06
-3.40572e-06
-3.50136e-06
-3.55804e-06
-3.28738e-06
-3.47009e-06
-3.39034e-06
-3.33204e-06
-3.48276e-06
-3.3375e-06
-3.41578e-06
-3.38187e-06
-3.63118e-06
-3.32308e-06
-3.3882e-06
-3.36776e-06
-3.21863e-06
-3.44857e-06
-3.38213e-06
-3.49646e-06
-3.55428e-06
-3.46142e-06
-3.47957e-06
-3.77434e-06
-3.56693e-06
-3.35238e-06
-3.52237e-06
-3.39271e-06
-3.18199e-06
-3.56746e-06
-3.49709e-06
-3.57596e-06
-3.21015e-06
-3.32509e-06
-3.34729e-06
-3.5347e-06
-3.31481e-06
-3.32105e-06
-3.40032e-06
-3.42878e-06
-3.41853e-06
-3.31345e-06
-3.44834e-06
-3.36701e-06
-3.2949e-06
-3.3346e-06
-3.57205e-06
-3.37029e-06
-3.34739e-06
-3.35467e-06
-3.50328e-06
-3.4442e-06
-3.36382e-06
-3.31816e-06
-3.7192e-06
-3.54967e-06
-3.36922e-06
-3.63286e-06
-3.77916e-06
-3.42313e-06
-3.53055e-06
-3.55697e-06
-3.3409e-06
-3.28714e-06
-3.48187e-06
-3.36975e-06
-3.1748e-06
-3.41716e-06
-3.48956e-06
-3.6338e-06
-3.48653e-06
-3.29856e-06
-3.41812e-06
-3.389e-06
-3.57794e-06
-3.59825e-06
-3.5676e-06
-3.37768e-06
-3.36082e-06
-3.43983e-06
-3.59233e-06
-3.30535e-06
-3.42612e-06
-3.5954e-06
-3.50255e-06
-3.50206e-06
-3.35577e-06
-3.44003e-06
-3.45514e-06
-3.61723e-06
-3.44884e-06
-3.40405e-06
-3.28763e-06
-3.31259e-06
-3.35043e-06
-3.4829e-06
-3.3312e-06
-3.32859e-06
-3.50402e-06
-3.53874e-06
-3.36575e-06
-3.38931e-06
-3.32689e-06
-3.41136e-06
-3.41698e-06
-3.37381e-06
-3.38117e-06
-3.27557e-06
-3.17364e-06
-3.24659e-06
-3.33777e-06
-3.64513e-06
-3.43861e-06
-3.45431e-06
-3.46435e-06
-3.239e-06
-3.51394e-06
-3.4081e-06
-3.78556e-06
-3.39644e-06
-3.25622e-06
-3.77808e-06
-3.73911e-06
-3.64602e-06
-3.35644e-06
-3.35258e-06
-3.37279e-06
-3.50443e-06
-3.7181e-06
-3.67137e-06
-3.57687e-06
-3.41939e-06
-3.44162e-06
-3.37624e-06
-3.36152e-06
-3.43364e-06
-3.49278e-06
-3.48765e-06
-3.65053e-06
-3.45012e-06
-3.38534e-06
-3.29399e-06
-3.48827e-06
-3.5237e-06
-3.24071e-06
-3.43227e-06
-3.54117e-06
-3.43859e-06
-3.54328e-06
-3.23978e-06
-3.31816e-06
-3.25956e-06
-3.62471e-06
-3.56445e-06
-3.51631e-06
-3.45284e-06
-3.40139e-06
-3.46996e-06
-3.53918e-06
-3.60554e-06
-3.53567e-06
-3.40008e-06
-3.32215e-06
-3.66984e-06
-3.42656e-06
-3.36816e-06
-3.47633e-06
-3.37322e-06
-3.58424e-06
-3.58678e-06
-3.46327e-06
-3.58535e-06
-3.42161e-06
-3.52065e-06
-3.52869e-06
-3.52543e-06
-3.31014e-06
-3.46901e-06
-3.48041e-06
-3.48826e-06
-3.42625e-06
-3.31402e-06
-3.44157e-06
-3.53271e-06
-3.37248e-06
-3.59953e-06
-3.40119e-06
-3.45104e-06
-3.46119e-06
-3.54351e-06
-3.46482e-06
-3.39312e-06
-3.37276e-06
-3.30482e-06
-3.402e-06
-3.34928e-06
-3.4366e-06
-3.59779e-06
-3.58985e-06
-3.30411e-06
-3.20727e-06
-3.4297e-06
-3.35298e-06
-3.38097e-06
-3.32022e-06
-3.1778e-06
-3.45995e-06
-3.3479e-06
-3.53914e-06
-3.50297e-06
-3.42181e-06
-3.4665e-06
-3.21463e-06
-3.23524e-06
-3.37557e-06
-3.28917e-06
-3.33363e-06
-3.8439e-06
-3.76601e-06
-3.62088e-06
-3.5295e-06
-3.30813e-06
-3.63218e-06
-3.46548e-06
-3.4814e-06
-3.3072e-06
-3.46296e-06
-3.45908e-06
-3.4378e-06
-3.4639e-06
-3.44565e-06
-3.30893e-06
-3.35012e-06
-3.56718e-06
-3.55383e-06
-3.58241e-06
-3.6216e-06
-3.61575e-06
-3.43904e-06
-3.38055e-06
-3.44597e-06
-3.53808e-06
-3.29117e-06
-3.2808e-06
-3.49318e-06
-3.50847e-06
-3.38434e-06
-3.47141e-06
-3.37722e-06
-3.62471e-06
-3.27905e-06
-3.54545e-06
-3.1924e-06
-3.24944e-06
-3.34621e-06
-3.26171e-06
-3.58537e-06
-3.3828e-06
-3.30072e-06
-3.3814e-06
-3.31527e-06
-3.30594e-06
-3.49953e-06
-3.59856e-06
-3.42532e-06
-3.57528e-06
-3.41136e-06
-3.53994e-06
-3.51471e-06
-3.4122e-06
-3.52239e-06
-3.40984e-06
-3.39847e-06
-3.47187e-06
-3.27806e-06
-3.4343e-06
-3.61596e-06
-3.59037e-06
-3.38124e-06
-3.54914e-06
-3.61325e-06
-3.57201e-06
-3.37463e-06
-3.33651e-06
-3.38729e-06
-3.32549e-06
-3.33808e-06
-3.28825e-06
-3.40795e-06
-3.45569e-06
-3.41831e-06
-3.29158e-06
-3.39623e-06
-3.57501e-06
-3.62583e-06
-3.47196e-06
-3.46778e-06
-3.43024e-06
-3.2198e-06
-3.39628e-06
-3.55242e-06
-3.33501e-06
-3.47264e-06
-3.21884e-06
-3.39229e-06
-3.54229e-06
-3.24628e-06
-3.49237e-06
-3.51748e-06
-3.40145e-06
-3.58228e-06
-3.37813e-06
-3.45801e-06
-3.51939e-06
-3.68987e-06
-3.5402e-06
-3.52398e-06
-3.66571e-06
-3.50325e-06
-3.39612e-06
-3.35938e-06
-3.41943e-06
-3.46426e-06
-3.57876e-06
-3.50901e-06
-3.53449e-06
-3.57745e-06
-3.48179e-06
-3.41941e-06
-3.36991e-06
-3.30258e-06
-3.31767e-06
-3.37534e-06
-3.46628e-06
-3.52912e-06
-3.43143e-06
-3.53617e-06
-3.61478e-06
-3.68274e-06
-3.33924e-06
-3.24892e-06
-3.36598e-06
-3.40142e-06
-3.58053e-06
-3.45911e-06
-3.34583e-06
-3.49089e-06
-3.40164e-06
-3.54545e-06
-3.21095e-06
-3.45461e-06
-3.45087e-06
-3.3513e-06
-3.47293e-06
-3.35415e-06
-3.35812e-06
-3.40823e-06
-3.62111e-06
-3.5584e-06
-3.65705e-06
-3.5114e-06
-3.28863e-06
-3.52837e-06
-3.47132e-06
-3.40327e-06
-3.32853e-06
-3.36712e-06
-3.52047e-06
-3.42757e-06
-3.46154e-06
-3.60412e-06
-3.56835e-06
-3.52312e-06
-3.42207e-06
-3.58879e-06
-3.32773e-06
-3.4708e-06
-3.60643e-06
-3.71252e-06
-3.61166e-06
-3.38596e-06
-3.53409e-06
-3.49378e-06
-3.39362e-06
-3.42357e-06
-3.43965e-06
-3.37043e-06
-3.52846e-06
-3.4401e-06
-3.61652e-06
-3.45865e-06
-3.62426e-06
-3.44192e-06
-3.75364e-06
-3.65979e-06
-3.52513e-06
-3.61853e-06
-3.24874e-06
-3.37951e-06
-3.45885e-06
-3.42408e-06
-3.35771e-06
-3.39662e-06
-3.39213e-06
-3.50818e-06
-3.32431e-06
-3.25747e-06
-3.34471e-06
-3.43991e-06
-3.56786e-06
-3.51214e-06
-3.35152e-06
-3.39296e-06
-3.67598e-06
-3.50116e-06
-3.47278e-06
-3.48262e-06
-3.61855e-06
-3.48739e-06
-3.35411e-06
-3.39939e-06
-3.43462e-06
-3.30691e-06
-3.49975e-06
-3.64907e-06
-3.65905e-06
-3.49364e-06
-3.52202e-06
-3.34686e-06
-3.37809e-06
-3.25461e-06
-3.3967e-06
-3.23253e-06
-3.47349e-06
-3.55048e-06
-3.26405e-06
-3.41206e-06
-3.57953e-06
-3.4663e-06
-3.44571e-06
-3.30909e-06
-3.31621e-06
-3.47881e-06
-3.34776e-06
-3.3402e-06
-3.53959e-06
-3.44627e-06
-3.45461e-06
-3.50051e-06
-3.54031e-06
-3.23917e-06
-3.43392e-06
-3.3123e-06
-3.39214e-06
-3.42412e-06
-3.34596e-06
-3.49109e-06
-3.64004e-06
-3.68862e-06
-3.51587e-06
-3.45382e-06
-3.45656e-06
-3.53216e-06
-3.4924e-06
-3.47294e-06
-3.48106e-06
-3.67857e-06
-3.29379e-06
-3.37703e-06
-3.68803e-06
-3.39934e-06
-3.24846e-06
-3.38903e-06
-3.54894e-06
-3.44745e-06
-3.53904e-06
-3.71355e-06
-3.59917e-06
-3.41648e-06
-3.46367e-06
-3.56387e-06
-3.61759e-06
-3.49584e-06
-3.40108e-06
-3.46942e-06
-3.31581e-06
-3.58017e-06
-3.57856e-06
-3.49829e-06
-3.69351e-06
-3.61821e-06
-3.37873e-06
-3.32827e-06
-3.45857e-06
-3.47941e-06
-3.45993e-06
-3.31284e-06
-3.57154e-06
-3.62388e-06
-3.50792e-06
-3.61301e-06
-3.60592e-06
-3.49605e-06
-3.40551e-06
-3.40042e-06
-3.36717e-06
-3.57502e-06
-3.52416e-06
-3.27158e-06
-3.58369e-06
-3.35989e-06
-3.2757e-06
-3.49943e-06
-3.4786e-06
-3.36371e-06
-3.51822e-06
-3.57347e-06
-3.48757e-06
-3.35069e-06
-3.48665e-06
-3.37992e-06
-3.21323e-06
-3.24331e-06
-3.68949e-06
-3.36597e-06
-3.37999e-06
-3.51484e-06
-3.51074e-06
-3.39802e-06
-3.59244e-06
-3.50782e-06
-3.34583e-06
-3.58402e-06
-3.49704e-06
-3.46571e-06
-3.49583e-06
-3.33715e-06
-3.42855e-06
-3.5755e-06
-3.25953e-06
-3.40277e-06
-3.65378e-06
-3.52257e-06
-3.27281e-06
-3.57104e-06
-3.48984e-06
-3.54031e-06
-3.31925e-06
-3.45526e-06
-3.20202e-06
-3.466e-06
-3.28995e-06
-3.35683e-06
-3.45826e-06
-3.31805e-06
-3.23125e-06
-3.46739e-06
-3.37859e-06
-3.4531e-06
-3.38249e-06
-3.36903e-06
-3.54881e-06
-3.61801e-06
-3.61259e-06
-3.54287e-06
-3.74968e-06
-3.51496e-06
-3.34281e-06
-3.6811e-06
-3.50496e-06
-3.69149e-06
-3.5219e-06
-3.48879e-06
-3.69671e-06
-3.46334e-06
-3.55319e-06
-3.30671e-06
-3.42539e-06
-3.29377e-06
-3.37055e-06
-3.52084e-06
-3.54522e-06
-3.31991e-06
-3.47807e-06
-3.45315e-06
-3.58106e-06
-3.60592e-06
-3.45157e-06
-3.48103e-06
-3.53443e-06
-3.37568e-06
-3.24362e-06
-3.49395e-06
-3.29921e-06
-3.37429e-06
-3.51373e-06
-3.77783e-06
-3.49413e-06
-3.4584e-06
-3.61736e-06
-3.42079e-06
-3.34747e-06
-3.38045e-06
-3.38856e-06
-3.3689e-06
-3.36652e-06
-3.64992e-06
-3.52898e-06
-3.52503e-06