# vtk DataFile Version 2.0
3D Surface
ASCII
DATASET UNSTRUCTURED_GRID
POINTS 15049 float
-1.2e-05 -1.225e-05 -9.61953e-06 
-1.2e-05 -1.2e-05 -9.61707e-06 
-1.225e-05 -1.225e-05 -9.61214e-06 
-1.225e-05 -1.2e-05 -9.61217e-06 
-1.175e-05 -1.225e-05 -9.62889e-06 
-1.175e-05 -1.2e-05 -9.62146e-06 
-1.15e-05 -1.225e-05 -9.61651e-06 
-1.15e-05 -1.2e-05 -9.6146e-06 
-1.125e-05 -1.225e-05 -9.62331e-06 
-1.125e-05 -1.2e-05 -9.62502e-06 
-1.1e-05 -1.225e-05 -9.6294e-06 
-1.1e-05 -1.2e-05 -9.62685e-06 
-1.075e-05 -1.225e-05 -9.62891e-06 
-1.075e-05 -1.2e-05 -9.6202e-06 
-1.05e-05 -1.225e-05 -9.62496e-06 
-1.05e-05 -1.2e-05 -9.61694e-06 
-1.025e-05 -1.225e-05 -9.6239e-06 
-1.025e-05 -1.2e-05 -9.61991e-06 
-1e-05 -1.225e-05 -9.62367e-06 
-1e-05 -1.2e-05 -9.62279e-06 
-9.75e-06 -1.225e-05 -9.61093e-06 
-9.75e-06 -1.2e-05 -9.61793e-06 
-9.5e-06 -1.225e-05 -9.6178e-06 
-9.5e-06 -1.2e-05 -9.61558e-06 
-9.25e-06 -1.225e-05 -9.62465e-06 
-9.25e-06 -1.2e-05 -9.61548e-06 
-9e-06 -1.225e-05 -9.62009e-06 
-9e-06 -1.2e-05 -9.61656e-06 
-8.75e-06 -1.225e-05 -9.62035e-06 
-8.75e-06 -1.2e-05 -9.62218e-06 
-8.5e-06 -1.225e-05 -9.62403e-06 
-8.5e-06 -1.2e-05 -9.62975e-06 
-8.25e-06 -1.225e-05 -9.62564e-06 
-8.25e-06 -1.2e-05 -9.61892e-06 
-8e-06 -1.225e-05 -9.62393e-06 
-8e-06 -1.2e-05 -9.61651e-06 
-7.75e-06 -1.225e-05 -9.62568e-06 
-7.75e-06 -1.2e-05 -9.62559e-06 
-7.5e-06 -1.225e-05 -9.61732e-06 
-7.5e-06 -1.2e-05 -9.62104e-06 
-7.25e-06 -1.225e-05 -9.6171e-06 
-7.25e-06 -1.2e-05 -9.62415e-06 
-7e-06 -1.225e-05 -9.62657e-06 
-7e-06 -1.2e-05 -9.62933e-06 
-6.75e-06 -1.225e-05 -9.62391e-06 
-6.75e-06 -1.2e-05 -9.62571e-06 
-6.5e-06 -1.225e-05 -9.61969e-06 
-6.5e-06 -1.2e-05 -9.61764e-06 
-6.25e-06 -1.225e-05 -9.62258e-06 
-6.25e-06 -1.2e-05 -9.62043e-06 
-6e-06 -1.225e-05 -9.61843e-06 
-6e-06 -1.2e-05 -9.62415e-06 
-5.75e-06 -1.225e-05 -9.61796e-06 
-5.75e-06 -1.2e-05 -9.62775e-06 
-5.5e-06 -1.225e-05 -9.63276e-06 
-5.5e-06 -1.2e-05 -9.62777e-06 
-5.25e-06 -1.225e-05 -9.62861e-06 
-5.25e-06 -1.2e-05 -9.63537e-06 
-5e-06 -1.225e-05 -9.61643e-06 
-5e-06 -1.2e-05 -9.62148e-06 
-4.75e-06 -1.225e-05 -9.62159e-06 
-4.75e-06 -1.2e-05 -9.62046e-06 
-4.5e-06 -1.225e-05 -9.63318e-06 
-4.5e-06 -1.2e-05 -9.62766e-06 
-4.25e-06 -1.225e-05 -9.63253e-06 
-4.25e-06 -1.2e-05 -9.61936e-06 
-4e-06 -1.225e-05 -9.62737e-06 
-4e-06 -1.2e-05 -9.62472e-06 
-3.75e-06 -1.225e-05 -9.6194e-06 
-3.75e-06 -1.2e-05 -9.61606e-06 
-3.5e-06 -1.225e-05 -9.61603e-06 
-3.5e-06 -1.2e-05 -9.61769e-06 
-3.25e-06 -1.225e-05 -9.61639e-06 
-3.25e-06 -1.2e-05 -9.62481e-06 
-3e-06 -1.225e-05 -9.6199e-06 
-3e-06 -1.2e-05 -9.62353e-06 
-2.75e-06 -1.225e-05 -9.6224e-06 
-2.75e-06 -1.2e-05 -9.62097e-06 
-2.5e-06 -1.225e-05 -9.61896e-06 
-2.5e-06 -1.2e-05 -9.62168e-06 
-2.25e-06 -1.225e-05 -9.62611e-06 
-2.25e-06 -1.2e-05 -9.63065e-06 
-2e-06 -1.225e-05 -9.62542e-06 
-2e-06 -1.2e-05 -9.62858e-06 
-1.75e-06 -1.225e-05 -9.62436e-06 
-1.75e-06 -1.2e-05 -9.62658e-06 
-1.5e-06 -1.225e-05 -9.61713e-06 
-1.5e-06 -1.2e-05 -9.61867e-06 
-1.25e-06 -1.225e-05 -9.61869e-06 
-1.25e-06 -1.2e-05 -9.62193e-06 
-1e-06 -1.225e-05 -9.6254e-06 
-1e-06 -1.2e-05 -9.62525e-06 
-7.5e-07 -1.225e-05 -9.62227e-06 
-7.5e-07 -1.2e-05 -9.61922e-06 
-5e-07 -1.225e-05 -9.62204e-06 
-5e-07 -1.2e-05 -9.61796e-06 
-2.5e-07 -1.225e-05 -9.61506e-06 
-2.5e-07 -1.2e-05 -9.62545e-06 
0 -1.225e-05 -9.61771e-06 
0 -1.2e-05 -9.61309e-06 
2.5e-07 -1.225e-05 -9.62729e-06 
2.5e-07 -1.2e-05 -9.61712e-06 
5e-07 -1.225e-05 -9.62545e-06 
5e-07 -1.2e-05 -9.61666e-06 
7.5e-07 -1.225e-05 -9.6209e-06 
7.5e-07 -1.2e-05 -9.61732e-06 
1e-06 -1.225e-05 -9.62437e-06 
1e-06 -1.2e-05 -9.62304e-06 
1.25e-06 -1.225e-05 -9.62211e-06 
1.25e-06 -1.2e-05 -9.63312e-06 
1.5e-06 -1.225e-05 -9.62187e-06 
1.5e-06 -1.2e-05 -9.62486e-06 
1.75e-06 -1.225e-05 -9.6119e-06 
1.75e-06 -1.2e-05 -9.62626e-06 
2e-06 -1.225e-05 -9.62283e-06 
2e-06 -1.2e-05 -9.62452e-06 
2.25e-06 -1.225e-05 -9.62143e-06 
2.25e-06 -1.2e-05 -9.62331e-06 
2.5e-06 -1.225e-05 -9.62276e-06 
2.5e-06 -1.2e-05 -9.62579e-06 
2.75e-06 -1.225e-05 -9.61497e-06 
2.75e-06 -1.2e-05 -9.61673e-06 
3e-06 -1.225e-05 -9.62168e-06 
3e-06 -1.2e-05 -9.61542e-06 
3.25e-06 -1.225e-05 -9.61756e-06 
3.25e-06 -1.2e-05 -9.6098e-06 
3.5e-06 -1.225e-05 -9.62398e-06 
3.5e-06 -1.2e-05 -9.62081e-06 
3.75e-06 -1.225e-05 -9.62517e-06 
3.75e-06 -1.2e-05 -9.62674e-06 
4e-06 -1.225e-05 -9.62226e-06 
4e-06 -1.2e-05 -9.62014e-06 
4.25e-06 -1.225e-05 -9.61588e-06 
4.25e-06 -1.2e-05 -9.62889e-06 
4.5e-06 -1.225e-05 -9.62083e-06 
4.5e-06 -1.2e-05 -9.6179e-06 
4.75e-06 -1.225e-05 -9.62448e-06 
4.75e-06 -1.2e-05 -9.6158e-06 
5e-06 -1.225e-05 -9.62117e-06 
5e-06 -1.2e-05 -9.62014e-06 
5.25e-06 -1.225e-05 -9.62421e-06 
5.25e-06 -1.2e-05 -9.62113e-06 
5.5e-06 -1.225e-05 -9.62499e-06 
5.5e-06 -1.2e-05 -9.62291e-06 
5.75e-06 -1.225e-05 -9.6207e-06 
5.75e-06 -1.2e-05 -9.62598e-06 
6e-06 -1.225e-05 -9.62704e-06 
6e-06 -1.2e-05 -9.62035e-06 
6.25e-06 -1.225e-05 -9.6236e-06 
6.25e-06 -1.2e-05 -9.62329e-06 
6.5e-06 -1.225e-05 -9.61936e-06 
6.5e-06 -1.2e-05 -9.62736e-06 
6.75e-06 -1.225e-05 -9.61046e-06 
6.75e-06 -1.2e-05 -9.6384e-06 
7e-06 -1.225e-05 -9.61876e-06 
7e-06 -1.2e-05 -9.62397e-06 
7.25e-06 -1.225e-05 -9.6224e-06 
7.25e-06 -1.2e-05 -9.61299e-06 
7.5e-06 -1.225e-05 -9.62437e-06 
7.5e-06 -1.2e-05 -9.61824e-06 
7.75e-06 -1.225e-05 -9.62846e-06 
7.75e-06 -1.2e-05 -9.62674e-06 
8e-06 -1.225e-05 -9.62224e-06 
8e-06 -1.2e-05 -9.61896e-06 
8.25e-06 -1.225e-05 -9.63163e-06 
8.25e-06 -1.2e-05 -9.63324e-06 
8.5e-06 -1.225e-05 -9.6162e-06 
8.5e-06 -1.2e-05 -9.61846e-06 
8.75e-06 -1.225e-05 -9.61857e-06 
8.75e-06 -1.2e-05 -9.62295e-06 
9e-06 -1.225e-05 -9.62634e-06 
9e-06 -1.2e-05 -9.61975e-06 
9.25e-06 -1.225e-05 -9.62626e-06 
9.25e-06 -1.2e-05 -9.63045e-06 
9.5e-06 -1.225e-05 -9.61808e-06 
9.5e-06 -1.2e-05 -9.62049e-06 
9.75e-06 -1.225e-05 -9.62698e-06 
9.75e-06 -1.2e-05 -9.6217e-06 
1e-05 -1.225e-05 -9.62185e-06 
1e-05 -1.2e-05 -9.6245e-06 
1.025e-05 -1.225e-05 -9.63121e-06 
1.025e-05 -1.2e-05 -9.61513e-06 
1.05e-05 -1.225e-05 -9.62747e-06 
1.05e-05 -1.2e-05 -9.61203e-06 
1.075e-05 -1.225e-05 -9.6278e-06 
1.075e-05 -1.2e-05 -9.61948e-06 
1.1e-05 -1.225e-05 -9.62333e-06 
1.1e-05 -1.2e-05 -9.61842e-06 
1.125e-05 -1.225e-05 -9.62438e-06 
1.125e-05 -1.2e-05 -9.61612e-06 
1.15e-05 -1.225e-05 -9.62753e-06 
1.15e-05 -1.2e-05 -9.62058e-06 
1.175e-05 -1.225e-05 -9.63357e-06 
1.175e-05 -1.2e-05 -9.6259e-06 
1.2e-05 -1.225e-05 -9.61906e-06 
1.2e-05 -1.2e-05 -9.6156e-06 
1.225e-05 -1.225e-05 -9.61214e-06 
1.225e-05 -1.2e-05 -9.61217e-06 
-1.2e-05 -1.175e-05 -9.62371e-06 
-1.225e-05 -1.175e-05 -9.62058e-06 
-1.175e-05 -1.175e-05 -9.61658e-06 
-1.15e-05 -1.175e-05 -9.61743e-06 
-1.125e-05 -1.175e-05 -9.61336e-06 
-1.1e-05 -1.175e-05 -9.61893e-06 
-1.075e-05 -1.175e-05 -9.61617e-06 
-1.05e-05 -1.175e-05 -9.61781e-06 
-1.025e-05 -1.175e-05 -9.61484e-06 
-1e-05 -1.175e-05 -9.62007e-06 
-9.75e-06 -1.175e-05 -9.62924e-06 
-9.5e-06 -1.175e-05 -9.62395e-06 
-9.25e-06 -1.175e-05 -9.62472e-06 
-9e-06 -1.175e-05 -9.6271e-06 
-8.75e-06 -1.175e-05 -9.61532e-06 
-8.5e-06 -1.175e-05 -9.62095e-06 
-8.25e-06 -1.175e-05 -9.62208e-06 
-8e-06 -1.175e-05 -9.61905e-06 
-7.75e-06 -1.175e-05 -9.62312e-06 
-7.5e-06 -1.175e-05 -9.63208e-06 
-7.25e-06 -1.175e-05 -9.62546e-06 
-7e-06 -1.175e-05 -9.62201e-06 
-6.75e-06 -1.175e-05 -9.621e-06 
-6.5e-06 -1.175e-05 -9.62329e-06 
-6.25e-06 -1.175e-05 -9.63384e-06 
-6e-06 -1.175e-05 -9.62152e-06 
-5.75e-06 -1.175e-05 -9.62296e-06 
-5.5e-06 -1.175e-05 -9.62562e-06 
-5.25e-06 -1.175e-05 -9.62537e-06 
-5e-06 -1.175e-05 -9.61852e-06 
-4.75e-06 -1.175e-05 -9.62751e-06 
-4.5e-06 -1.175e-05 -9.61382e-06 
-4.25e-06 -1.175e-05 -9.60671e-06 
-4e-06 -1.175e-05 -9.62632e-06 
-3.75e-06 -1.175e-05 -9.62439e-06 
-3.5e-06 -1.175e-05 -9.62777e-06 
-3.25e-06 -1.175e-05 -9.62871e-06 
-3e-06 -1.175e-05 -9.61647e-06 
-2.75e-06 -1.175e-05 -9.61903e-06 
-2.5e-06 -1.175e-05 -9.6143e-06 
-2.25e-06 -1.175e-05 -9.62173e-06 
-2e-06 -1.175e-05 -9.63314e-06 
-1.75e-06 -1.175e-05 -9.62635e-06 
-1.5e-06 -1.175e-05 -9.61853e-06 
-1.25e-06 -1.175e-05 -9.62662e-06 
-1e-06 -1.175e-05 -9.61679e-06 
-7.5e-07 -1.175e-05 -9.61826e-06 
-5e-07 -1.175e-05 -9.61239e-06 
-2.5e-07 -1.175e-05 -9.63089e-06 
0 -1.175e-05 -9.62231e-06 
2.5e-07 -1.175e-05 -9.63132e-06 
5e-07 -1.175e-05 -9.61541e-06 
7.5e-07 -1.175e-05 -9.61769e-06 
1e-06 -1.175e-05 -9.63085e-06 
1.25e-06 -1.175e-05 -9.6265e-06 
1.5e-06 -1.175e-05 -9.6206e-06 
1.75e-06 -1.175e-05 -9.62491e-06 
2e-06 -1.175e-05 -9.62153e-06 
2.25e-06 -1.175e-05 -9.62295e-06 
2.5e-06 -1.175e-05 -9.62643e-06 
2.75e-06 -1.175e-05 -9.62305e-06 
3e-06 -1.175e-05 -9.61501e-06 
3.25e-06 -1.175e-05 -9.62528e-06 
3.5e-06 -1.175e-05 -9.62545e-06 
3.75e-06 -1.175e-05 -9.61962e-06 
4e-06 -1.175e-05 -9.61613e-06 
4.25e-06 -1.175e-05 -9.62349e-06 
4.5e-06 -1.175e-05 -9.61687e-06 
4.75e-06 -1.175e-05 -9.62551e-06 
5e-06 -1.175e-05 -9.62594e-06 
5.25e-06 -1.175e-05 -9.61726e-06 
5.5e-06 -1.175e-05 -9.61644e-06 
5.75e-06 -1.175e-05 -9.62803e-06 
6e-06 -1.175e-05 -9.62372e-06 
6.25e-06 -1.175e-05 -9.62429e-06 
6.5e-06 -1.175e-05 -9.61956e-06 
6.75e-06 -1.175e-05 -9.62996e-06 
7e-06 -1.175e-05 -9.62402e-06 
7.25e-06 -1.175e-05 -9.62056e-06 
7.5e-06 -1.175e-05 -9.63127e-06 
7.75e-06 -1.175e-05 -9.62617e-06 
8e-06 -1.175e-05 -9.62602e-06 
8.25e-06 -1.175e-05 -9.62662e-06 
8.5e-06 -1.175e-05 -9.6209e-06 
8.75e-06 -1.175e-05 -9.62727e-06 
9e-06 -1.175e-05 -9.62317e-06 
9.25e-06 -1.175e-05 -9.62074e-06 
9.5e-06 -1.175e-05 -9.61929e-06 
9.75e-06 -1.175e-05 -9.628e-06 
1e-05 -1.175e-05 -9.62381e-06 
1.025e-05 -1.175e-05 -9.61682e-06 
1.05e-05 -1.175e-05 -9.61589e-06 
1.075e-05 -1.175e-05 -9.62887e-06 
1.1e-05 -1.175e-05 -9.63212e-06 
1.125e-05 -1.175e-05 -9.62835e-06 
1.15e-05 -1.175e-05 -9.62817e-06 
1.175e-05 -1.175e-05 -9.619e-06 
1.2e-05 -1.175e-05 -9.62246e-06 
1.225e-05 -1.175e-05 -9.62058e-06 
-1.2e-05 -1.15e-05 -9.62926e-06 
-1.225e-05 -1.15e-05 -9.62296e-06 
-1.175e-05 -1.15e-05 -9.62239e-06 
-1.15e-05 -1.15e-05 -9.62013e-06 
[...]
POINT_DATA 15049
SCALARS Velocities float 1
LOOKUP_TABLE default
-3.50914e-06
-3.67355e-06
-3.50612e-06
-3.42234e-06
-3.22174e-06
-3.4492e-06
-3.46727e-06
-3.47901e-06
-3.42752e-06
-3.21688e-06
-3.57917e-06
-3.4162e-06
-3.65709e-06
-3.50189e-06
-3.51991e-06
-3.45801e-06
-3.46525e-06
-3.38822e-06
-3.40206e-06
-3.37451e-06
-3.43729e-06
-3.35379e-06
-3.34084e-06
-3.48706e-06
-3.50236e-06
-3.32713e-06
-3.58739e-06
-3.3314e-06
-3.40624e-06
-3.25156e-06
-3.67223e-06
-3.4222e-06
-3.52631e-06
-3.4571e-06
-3.28146e-06
-3.39052e-06
-3.18403e-06
-3.47217e-06
-3.41503e-06
-3.3274e-06
-3.50818e-06
-3.28528e-06
-3.27784e-06
-3.34065e-06
-3.32007e-06
-3.40736e-06
-3.34902e-06
-3.62784e-06
-3.37306e-06
-3.48084e-06
-3.37037e-06
-3.53411e-06
-3.40088e-06
-3.51957e-06
-3.45058e-06
-3.49421e-06
-3.25821e-06
-3.25428e-06
-3.47144e-06
-3.45991e-06
-3.38364e-06
-3.40188e-06
-3.48679e-06
-3.50448e-06
-3.38558e-06
-3.5432e-06
-3.33165e-06
-3.45491e-06
-3.37992e-06
-3.32532e-06
-3.55866e-06
-3.59174e-06
-3.25196e-06
-3.424e-06
-3.46391e-06
-3.55475e-06
-3.5718e-06
-3.59362e-06
-3.34674e-06
-3.47034e-06
-3.34773e-06
-3.42572e-06
-3.48769e-06
-3.51245e-06
-3.06496e-06
-3.30717e-06
-3.26598e-06
-3.3368e-06
-3.54971e-06
-3.5506e-06
-3.40447e-06
-3.54375e-06
-3.42977e-06
-3.683e-06
-3.46736e-06
-3.43386e-06
-3.61066e-06
-3.38726e-06
-3.46695e-06
-3.51214e-06
-3.35845e-06
-3.41003e-06
-3.47994e-06
-3.29262e-06
-3.39351e-06
-3.49737e-06
-3.4567e-06
-3.54272e-06
-3.61693e-06
-3.51876e-06
-3.43688e-06
-3.44083e-06
-3.44827e-06
-3.47075e-06
-3.56001e-06
-3.45004e-06
-3.15256e-06
-3.58043e-06
-3.42939e-06
-3.55383e-06
-3.41213e-06
-3.55385e-06
-3.75945e-06
-3.63372e-06
-3.60291e-06
-3.54531e-06
-3.48441e-06
-3.55304e-06
-3.49546e-06
-3.4482e-06
-3.35534e-06
-3.59449e-06
-3.43136e-06
-3.46307e-06
-3.49463e-06
-3.57676e-06
-3.2668e-06
-3.45347e-06
-3.4512e-06
-3.44076e-06
-3.42367e-06
-3.37527e-06
-3.47854e-06
-3.5433e-06
-3.47288e-06
-3.42032e-06
-3.59597e-06
-3.4732e-06
-3.47457e-06
-3.58547e-06
-3.50228e-06
-3.47483e-06
-3.30604e-06
-3.42825e-06
-3.52486e-06
-3.47556e-06
-3.49235e-06
-3.59179e-06
-3.1905e-06
-3.52656e-06
-3.4232e-06
-3.58021e-06
-3.38381e-06
-3.25286e-06
-3.32137e-06
-3.44949e-06
-3.51744e-06
-3.59108e-06
-3.61661e-06
-3.46582e-06
-3.6348e-06
-3.49268e-06
-3.46029e-06
-3.38385e-06
-3.48527e-06
-3.50272e-06
-3.30137e-06
-3.49173e-06
-3.51359e-06
-3.6486e-06
-3.44898e-06
-3.28132e-06
-3.61976e-06
-3.54687e-06
-3.29723e-06
-3.41277e-06
-3.3089e-06
-3.53241e-06
-3.3333e-06
-3.30769e-06
-3.46999e-06
-3.36892e-06
-3.20653e-06
-3.36242e-06
-3.47629e-06
-3.43914e-06
-3.50612e-06
-3.42234e-06
-3.43015e-06
-3.52973e-06
-3.56192e-06
-3.63892e-06
-3.4318e-06
-3.54342e-06
-3.40247e-06
-3.28138e-06
-3.24724e-06
-3.46224e-06
-3.46423e-06
-3.29158e-06
-3.36957e-06
-3.43292e-06
-3.3867e-06
-3.33545e-06
-3.31739e-06
-3.56268e-06
-3.54628e-06
-3.41064e-06
-3.49982e-06
-3.55053e-06
-3.25192e-06
-3.31291e-06
-3.40012e-06
-3.27509e-06
-3.4309e-06
-3.51139e-06
-3.53549e-06
-3.57224e-06
-3.58745e-06
-3.59238e-06
-3.62205e-06
-3.48907e-06
-3.27347e-06
-3.47997e-06
-3.53138e-06
-3.75761e-06
-3.66663e-06
-3.49909e-06
-3.4132e-06
-3.34376e-06
-3.47983e-06
-3.37331e-06
-3.53261e-06
-3.56229e-06
-3.46444e-06
-3.23583e-06
-3.48268e-06
-3.51906e-06
-3.43561e-06
-3.26533e-06
-3.39816e-06
-3.31427e-06
-3.60828e-06
-3.72139e-06
-3.52871e-06
-3.36356e-06
-3.47969e-06
-3.43843e-06
-3.42586e-06
-3.40934e-06
-3.58437e-06
-3.60416e-06
-3.36445e-06
-3.4603e-06
-3.5496e-06
-3.33744e-06
-3.28726e-06
-3.31091e-06
-3.56974e-06
-3.5954e-06
-3.43001e-06
-3.23132e-06
-3.50827e-06
-3.40032e-06
-3.31858e-06
-3.58839e-06
-3.4572e-06
-3.34021e-06
-3.42293e-06
-3.4259e-06
-3.54089e-06
-3.51254e-06
-3.4477e-06
-3.34232e-06
-3.47165e-06
-3.53149e-06
-3.50118e-06
-3.57803e-06
-3.35991e-06
-3.37513e-06
-3.26105e-06
-3.49051e-06
-3.42103e-06
-3.43454e-06
-3.19613e-06
-3.1348e-06
-3.52973e-06
-3.33316e-06
-3.35505e-06
-3.6317e-06
-3.60867e-06
-3.53001e-06
-3.49688e-06
-3.39293e-06
-3.38992e-06
-3.4671e-06
-3.46916e-06
-3.39071e-06
-3.62778e-06
-3.30051e-06
-3.42632e-06
-3.36389e-06
-3.37487e-06
-3.29182e-06
-3.47351e-06
-3.44753e-06
-3.51331e-06
-3.55348e-06
-3.36759e-06
-3.45107e-06
-3.50833e-06
-3.52352e-06
-3.52333e-06
-3.17452e-06
-3.5233e-06
-3.37957e-06
-3.28403e-06
-3.44216e-06
-3.58191e-06
-3.41412e-06
-3.31049e-06
-3.40125e-06
-3.52454e-06
-3.38228e-06
-3.40095e-06
-3.36731e-06
-3.49222e-06
-3.51067e-06
-3.47587e-06
-3.34244e-06
-3.44393e-06
-3.58795e-06
-3.54207e-06
-3.52251e-06
-3.39016e-06
-3.5746e-06
-3.50272e-06
-3.60388e-06
-3.76461e-06
-3.35112e-06
-3.38265e-06
-3.53175e-06
-3.38197e-06
-3.40902e-06
-3.33932e-06
-3.29072e-06
-3.55371e-06
-3.62288e-06
-3.60709e-06
-3.65594e-06
-3.52264e-06
-3.47324e-06
-3.48993e-06
-3.5597e-06
-3.61566e-06
-3.51347e-06
-3.2346e-06
-3.54828e-06
-3.49597e-06
-3.37705e-06
-3.39223e-06
-3.57367e-06
-3.46733e-06
-3.27067e-06
-3.58715e-06
-3.59951e-06
-3.6153e-06
-3.37297e-06
-3.27952e-06
-3.45388e-06
-3.46245e-06
-3.6085e-06
-3.33825e-06
-3.25063e-06
-3.5528e-06
-3.50475e-06
-3.51816e-06
-3.50603e-06
-3.54229e-06
-3.39208e-06
-3.53963e-06
-3.3908e-06
-3.50472e-06
-3.46519e-06
-3.25876e-06
-3.35505e-06
-3.70017e-06
-3.34841e-06
-3.70223e-06
-3.40475e-06
-3.29258e-06
-3.28653e-06
-3.4992e-06
-3.39608e-06
-3.52513e-06
-3.32108e-06
-3.51464e-06
-3.64962e-06
-3.41305e-06
-3.27536e-06
-3.44319e-06
-3.43995e-06
-3.49868e-06
-3.30436e-06
-3.29913e-06
-3.46169e-06
-3.52811e-06
-3.47278e-06
-3.47753e-06
-3.36403e-06
-3.52895e-06
-3.76083e-06
-3.41708e-06
-3.55525e-06
-3.38118e-06
-3.42895e-06
-3.47496e-06
-3.34445e-06
-3.45847e-06
-3.41819e-06
-3.32745e-06
-3.43419e-06
-3.46796e-06
-3.42577e-06
-3.31264e-06
-3.5081e-06
-3.4313e-06
-3.48303e-06
-3.30741e-06
-3.38912e-06
-3.43853e-06
-3.54478e-06
-3.47628e-06
-3.47313e-06
-3.51028e-06
-3.32226e-06
-3.45483e-06
-3.51326e-06
-3.535e-06
-3.57589e-06
-3.58676e-06
-3.47553e-06
-3.19459e-06
-3.45745e-06
-3.59923e-06
-3.52009e-06
-3.46444e-06
-3.37965e-06
-3.46415e-06
-3.45835e-06
-3.40631e-06
-3.46473e-06
-3.54493e-06
-3.34245e-06
-3.41519e-06
-3.45825e-06
-3.41544e-06
-3.48631e-06
-3.3533e-06
-3.62483e-06
-3.46206e-06
-3.54434e-06
-3.52416e-06
-3.49313e-06
-3.55706e-06
-3.40493e-06
-3.41303e-06
-3.41271e-06
-3.30558e-06
-3.51515e-06
-3.49245e-06
-3.50055e-06
-3.13488e-06
-3.31935e-06
-3.337e-06
-3.35572e-06
-3.22056e-06
-3.62819e-06
-3.51775e-06
-3.36748e-06
-3.24277e-06
-3.30737e-06
-3.5743e-06
-3.45669e-06
-3.34841e-06
-3.57882e-06
-3.37455e-06
-3.59458e-06
-3.40717e-06
-3.24832e-06
-3.46911e-06
-3.41051e-06
-3.51018e-06
-3.45689e-06
-3.32923e-06
-3.51492e-06
-3.45526e-06
-3.65744e-06
-3.45089e-06
-3.49548e-06
-3.46756e-06
-3.6033e-06
-3.53644e-06
-3.62783e-06
-3.72102e-06
-3.48243e-06
-3.4492e-06
-3.63631e-06
-3.39967e-06
-3.39684e-06
-3.39924e-06
-3.21113e-06
-3.33834e-06
-3.47785e-06
-3.33045e-06
-3.36728e-06
-3.58369e-06
-3.66114e-06
-3.4356e-06
-3.42968e-06
-3.55813e-06
-3.42242e-06
-3.34905e-06
-3.50202e-06
-3.42399e-06
-3.58947e-06
-3.59345e-06
-3.42305e-06
-3.38359e-06
-3.60864e-06
-3.60361e-06
-3.46617e-06
-3.55387e-06
-3.35382e-06
-3.3145e-06
-3.49729e-06
-3.4815e-06
-3.43975e-06
-3.25677e-06
-3.56012e-06
-3.42202e-06
-3.38928e-06
-3.52736e-06
-3.43025e-06
-3.57214e-06
-3.55852e-06
-3.63388e-06
-3.32423e-06
-3.20788e-06
-3.50805e-06
-3.54372e-06
-3.36473e-06
-3.17245e-06
-3.30655e-06
-3.60551e-06
-3.56397e-06
-3.52084e-06
-3.36786e-06
-3.56659e-06
-3.3448e-06
-3.26497e-06
-3.46413e-06
-3.52455e-06
-3.47455e-06
-3.49077e-06
-3.75879e-06
-3.46356e-06
-3.52029e-06
-3.56718e-06
-3.52877e-06
-3.42438e-06
-3.36665e-06
-3.42829e-06
-3.40976e-06
-3.46016e-06
-3.41143e-06
-3.45237e-06
-3.41095e-06
-3.44923e-06
-3.56199e-06
-3.38179e-06
-3.44985e-06
-3.3477e-06
-3.37455e-06
-3.38615e-06
-3.25371e-06
-3.58306e-06
-3.24384e-06
-3.28996e-06
-3.47019e-06
-3.3629e-06
-3.52814e-06
-3.40936e-06
-3.42561e-06
-3.62713e-06
-3.48642e-06
-3.50913e-06
-3.54067e-06
-3.60981e-06
-3.72604e-06
-3.53527e-06
-3.60473e-06
-3.45278e-06
-3.29227e-06
-3.40765e-06
-3.39017e-06
-3.66937e-06
-3.37602e-06
-3.25736e-06
-3.20164e-06
-3.28027e-06
-3.20563e-06
-3.55684e-06
-3.61761e-06
-3.37798e-06
-3.43288e-06
-3.43941e-06
-3.53747e-06
-3.62695e-06
-3.43568e-06
-3.48653e-06
-3.40355e-06
-3.16161e-06
-3.35112e-06
-3.57438e-06
-3.54657e-06
-3.40038e-06
-3.09465e-06
-3.51044e-06
-3.44309e-06
-3.48964e-06
-3.36854e-06
-3.50734e-06
-3.46627e-06
-3.47681e-06
-3.51301e-06
-3.53052e-06
-3.3617e-06
-3.5781e-06
-3.22151e-06
-3.40659e-06
-3.40222e-06
-3.60535e-06
-3.35287e-06
-3.31561e-06
-3.3209e-06
-3.30641e-06
-3.365e-06
-3.5538e-06
-3.46122e-06
-3.54689e-06
-3.2783e-06
-3.36933e-06
-3.47519e-06
-3.55767e-06
-3.51853e-06
-3.43778e-06
-3.43439e-06
-3.38726e-06
-3.27995e-06
-3.46827e-06
-3.31405e-06
-3.31043e-06
-3.51014e-06
-3.34441e-06
-3.43346e-06
-3.55127e-06
-3.48515e-06
-3.48124e-06
-3.71399e-06
-3.75101e-06
-3.52113e-06
-3.61251e-06
-3.57526e-06
-3.51896e-06
-3.42722e-06
-3.52036e-06
-3.50335e-06
-3.55134e-06
-3.40473e-06
-3.4994e-06
-3.49445e-06
-3.25371e-06
-3.48252e-06
-3.36027e-06
-3.41199e-06
-3.25838e-06
-3.55271e-06
-3.42856e-06
-3.44479e-06
-3.33667e-06
-3.17476e-06
-3.31142e-06
-3.54973e-06
-3.30377e-06
-3.2407e-06
-3.46423e-06
-3.65398e-06
-3.40418e-06
-3.356e-06
-3.47049e-06
-3.39249e-06
-3.39747e-06
-3.49249e-06
-3.44835e-06
-3.60077e-06
-3.51887e-06
-3.37195e-06
-3.54256e-06
-3.46856e-06
-3.52804e-06
-3.58633e-06
-3.69043e-06
-3.57948e-06
-3.26969e-06
-3.44442e-06
-3.35799e-06
-3.40368e-06
-3.29954e-06
-3.54819e-06
-3.52691e-06
-3.22707e-06
-3.38134e-06
-3.5912e-06
-3.46919e-06
-3.36308e-06
-3.32689e-06
-3.43325e-06
-3.20508e-06
-3.37371e-06
-3.59592e-06
-3.55522e-06
-3.48839e-06
-3.37397e-06
-3.54154e-06
-3.34543e-06
-3.37285e-06
-3.25018e-06
-3.19325e-06
-3.25284e-06
-3.54085e-06
-3.39583e-06
-3.22679e-06
-3.49803e-06
-3.41892e-06
-3.4761e-06
-3.45021e-06
-3.65311e-06
-3.35389e-06
-3.46554e-06
-3.3153e-06
-3.37537e-06
-3.39614e-06
-3.4798e-06
-3.55855e-06
-3.3921e-06
-3.3122e-06
-3.49446e-06
-3.56237e-06
-3.61144e-06
-3.45741e-06
-3.48732e-06
-3.4978e-06
-3.3243e-06
-3.45658e-06
-3.40086e-06
-3.34453e-06
-3.36474e-06
-3.50491e-06
-3.39924e-06
-3.5335e-06
-3.62008e-06
-3.27296e-06
-3.22335e-06
-3.25044e-06
-3.38063e-06
-3.54777e-06
-3.59509e-06
-3.22826e-06
-3.35539e-06
-3.61688e-06
-3.36027e-06
-3.25622e-06
-3.66863e-06
-3.35476e-06
-3.39866e-06
-3.55743e-06
-3.40875e-06
-3.47697e-06
-3.51584e-06
-3.39133e-06
-3.35372e-06
-3.44998e-06
-3.41772e-06
-3.73163e-06
-3.51238e-06
-3.52575e-06
-3.41873e-06
-3.34248e-06
-3.70733e-06
-3.72334e-06
-3.54247e-06
-3.39782e-06
-3.3055e-06
-3.345e-06
-3.37013e-06
-3.16853e-06
-3.47616e-06
-3.39527e-06
-3.59761e-06
-3.59141e-06
-3.33814e-06
-3.39435e-06
-3.45239e-06
-3.49525e-06
-3.21897e-06
-3.42596e-06
-3.3727e-06
-3.37837e-06
-3.6142e-06
-3.41066e-06
-3.42807e-06
-3.46483e-06
-3.34893e-06
-3.48553e-06
-3.42851e-06
-3.41412e-06
-3.32894e-06
-3.41887e-06
-3.42271e-06
-3.47039e-06
-3.40016e-06
-3.13792e-06
-3.37334e-06
-3.34584e-06
-3.4506e-06
-3.55138e-06
-3.50374e-06
-3.39008e-06
-3.55931e-06
-3.39181e-06
-3.42528e-06
-3.43322e-06
-3.40044e-06
-3.32673e-06
-3.46935e-06
-3.29274e-06
-3.19799e-06
-3.57616e-06
-3.43428e-06
-3.32349e-06
-3.57424e-06
-3.24718e-06
-3.45511e-06
-3.33887e-06
-3.4145e-06
-3.02924e-06
-3.46593e-06
-3.56687e-06
-3.4289e-06
-3.45719e-06
-3.49512e-06
-3.46356e-06
-3.37753e-06
-3.37558e-06
-3.31377e-06
-3.40081e-06
-3.24415e-06
-3.35442e-06
-3.3641e-06
-3.47519e-06
-3.62158e-06
-3.48343e-06
-3.44614e-06
-3.42122e-06
-3.53897e-06
-3.53374e-06
-3.31418e-06
-3.36269e-06
-3.67518e-06
-3.66863e-06
-3.51968e-06
-3.46866e-06
-3.30309e-06
-3.44022e-06
-3.2672e-06
-3.29207e-06
-3.44512e-06
-3.51184e-06
-3.2748e-06
-3.25378e-06
-3.52131e-06
-3.69037e-06
-3.52139e-06
-3.57121e-06
-3.56986e-06
-3.27837e-06
-3.48071e-06
-3.33247e-06
-3.32722e-06
-3.64383e-06
-3.46066e-06
-3.34273e-06
-3.40934e-06
-3.30619e-06
-3.30311e-06
-3.34365e-06
-3.34074e-06
-3.41531e-06
-3.623e-06
-3.57209e-06
-3.4446e-06
-3.52012e-06
-3.48623e-06
-3.45746e-06
-3.43707e-06
-3.49534e-06
-3.4207e-06
-3.57829e-06
-3.49395e-06
-3.53673e-06
-3.6015e-06
-3.37739e-06
-3.47729e-06
-3.41416e-06
-3.39735e-06
-3.33973e-06
-3.56676e-06
-3.35827e-06
-3.30962e-06
-3.47405e-06
-3.39317e-06
-3.52534e-06
-3.44259e-06
-3.42933e-06
-3.46413e-06
-3.36797e-06
-3.54682e-06
-3.42665e-06
-3.23824e-06
-3.49178e-06
-3.48036e-06
-3.55807e-06
-3.27701e-06
-3.37815e-06
-3.42642e-06
-3.40823e-06
-3.47236e-06
-3.44883e-06
-3.48204e-06
-3.71023e-06
-3.52956e-06
-3.46694e-06
-3.31534e-06
-3.39045e-06
-3.30467e-06
-3.44899e-06
-3.38112e-06
-3.3789e-06
-3.53101e-06
-3.4139e-06
-3.55045e-06
-3.47747e-06
-3.48549e-06
-3.57947e-06
-3.7159e-06
-3.46699e-06
-3.33737e-06
-3.33008e-06
-3.24923e-06
-3.40805e-06
-3.40172e-06
-3.44994e-06
-3.49471e-06
-3.5303e-06
-3.437e-06
-3.33385e-06
-3.54299e-06
-3.61587e-06
-3.46866e-06
-3.41682e-06
-3.60448e-06
-3.32711e-06
-3.55726e-06
-3.56132e-06
-3.39137e-06
-3.48589e-06
-3.34307e-06
-3.3331e-06
-3.42794e-06
-3.73091e-06
-3.54263e-06
-3.38941e-06
-3.6188e-06
-3.34315e-06
-3.23958e-06
-3.28765e-06
-3.34031e-06
-3.35666e-06
-3.42146e-06
-3.37419e-06
-3.43721e-06
-3.48864e-06
-3.3533e-06
-3.45302e-06
-3.3481e-06
-3.33787e-06
-3.3637e-06
-3.60901e-06
-3.45234e-06
-3.54325e-06
-3.49148e-06
-3.56227e-06
-3.59774e-06
-3.38222e-06
-3.52108e-06
-3.3078e-06
-3.54603e-06
-3.59692e-06
-3.50665e-06
-3.49004e-06
-3.20896e-06
-3.58473e-06
-3.54392e-06
-3.41657e-06
-3.40394e-06
-3.62491e-06
-3.63291e-06
-3.43391e-06
-3.53462e-06
-3.33121e-06
-3.36041e-06
-3.69629e-06
-3.5388e-06
-3.21694e-06
-3.3104e-06
-3.3993e-06
-3.55369e-06
-3.2951e-06
-3.47066e-06
-3.48661e-06
-3.59752e-06
-3.34247e-06
-3.30844e-06
-3.1959e-06
-3.37299e-06
-3.33481e-06
-3.51496e-06
-3.50372e-06
-3.402e-06
-3.57063e-06
-3.4701e-06
-3.18723e-06
-3.41538e-06
-3.48409e-06
-3.39836e-06
-3.53332e-06
-3.31239e-06
-3.43889e-06
-3.35847e-06
-3.44428e-06
-3.43498e-06
-3.28295e-06
-3.41187e-06
-3.62658e-06
-3.53739e-06
-3.51314e-06
-3.46507e-06
-3.29225e-06
-3.14711e-06
-3.27962e-06
-3.36847e-06
-3.3556e-06
-3.2727e-06
-3.2832e-06
-3.56699e-06
-3.55079e-06
-3.53733e-06
-3.60448e-06
-3.39815e-06
-3.5616e-06
-3.42739e-06
-3.4121e-06
-3.57104e-06
-3.62402e-06
-3.47675e-06
-3.36637e-06
-3.47508e-06
-3.21533e-06
-3.63274e-06
-3.55646e-06
-3.59139e-06
-3.57291e-06
-3.36548e-06
-3.31588e-06
-3.31836e-06
-3.45794e-06
-3.57211e-06
-3.51417e-06
-3.39013e-06
-3.20968e-06
-3.26627e-06
-3.4221e-06
-3.56128e-06
-3.28898e-06
-3.34319e-06
-3.32957e-06
-3.45732e-06
-3.30066e-06
-3.3903e-06
-3.30919e-06
-3.50994e-06
-3.45803e-06
-3.43554e-06
-3.4594e-06
-3.54545e-06
-3.48611e-06
-3.44532e-06
-3.20184e-06
-3.30435e-06
-3.32049e-06
-3.50818e-06
-3.68891e-06
-3.3855e-06
-3.23689e-06
-3.2398e-06
-3.57259e-06
-3.54324e-06
-3.444e-06
-3.31983e-06
-3.41034e-06
-3.45475e-06
-3.28493e-06
-3.30393e-06
-3.38773e-06
-3.44962e-06
-3.47169e-06
-3.43831e-06
-3.55804e-06
-3.51269e-06
-3.45577e-06
-3.55407e-06
-3.34246e-06
-3.37498e-06
-3.6189e-06
-3.70857e-06
-3.44642e-06
-3.77882e-06
-3.52962e-06
-3.48568e-06
-3.38732e-06
-3.4103e-06
-3.4584e-06
-3.3525e-06
-3.48652e-06
-3.53169e-06
-3.22583e-06
-3.48071e-06
-3.50397e-06
-3.55261e-06
-3.38755e-06
-3.37122e-06
-3.47231e-06
-3.55447e-06
-3.48505e-06
-3.51869e-06
-3.31573e-06
-3.45919e-06
-3.54579e-06
-3.33041e-06
-3.30155e-06
-3.30222e-06
-3.32599e-06
-3.30726e-06
-3.41851e-06
-3.45554e-06
-3.52348e-06
-3.5616e-06
-3.30975e-06
-3.40515e-06
-3.52932e-06
-3.56172e-06
-3.59058e-06
-3.50689e-06
-3.48067e-06
-3.5365e-06
-3.53104e-06
-3.29922e-06
-3.42875e-06
-3.22853e-06
-3.29649e-06
-3.51939e-06
-3.41856e-06
-3.37581e-06
-3.47876e-06
-3.57917e-06
-3.5526e-06
-3.5793e-06
-3.4354e-06
-3.41657e-06
-3.62257e-06
-3.54368e-06
-3.45284e-06
-3.42234e-06
-3.41252e-06
-3.3804e-06
-3.3763e-06
-3.32301e-06
-3.41815e-06
-3.3084e-06
-3.44624e-06
-3.4479e-06
-3.39479e-06
-3.45111e-06
-3.60864e-06
-3.37412e-06
-3.54377e-06
-3.49786e-06
-3.52731e-06
-3.42821e-06
-3.53955e-06
-3.54881e-06
-3.50492e-06
-3.20931e-06
-3.29939e-06
-3.39522e-06
-3.33153e-06
-3.44421e-06
-3.57233e-06
-3.62557e-06
-3.51069e-06
-3.43188e-06
-3.25871e-06
-3.66493e-06
-3.57408e-06
-3.64719e-06
-3.27701e-06
-3.34303e-06
-3.54504e-06
-3.269e-06
-3.2482e-06
-3.42139e-06
-3.54276e-06
-3.78072e-06
-3.33555e-06
-3.60985e-06
-3.56249e-06
-3.50301e-06
-3.42165e-06
-3.39364e-06
-3.41915e-06
-3.45566e-06
-3.2349e-06
-3.696e-06
-3.51747e-06
-3.40687e-06
-3.28241e-06
-3.27989e-06
-3.36819e-06
-3.27816e-06
-3.37885e-06
-3.59326e-06
-3.4242e-06
-3.31257e-06
-3.4402e-06
-3.33256e-06
-3.42254e-06
-3.43466e-06
-3.46462e-06
-3.43811e-06
-3.2754e-06
-3.45421e-06
-3.60423e-06
-3.4102e-06
-3.28689e-06
-3.55958e-06
-3.40515e-06
-3.25952e-06
-3.48159e-06
-3.34702e-06
-3.36482e-06
-3.63781e-06
-3.56722e-06
-3.45015e-06
-3.42052e-06
-3.70171e-06
-3.51448e-06
-3.35882e-06
-3.41887e-06
-3.19329e-06
-3.54095e-06
-3.48523e-06
-3.26968e-06
-3.24263e-06
-3.246e-06
-3.48541e-06
-3.42487e-06
-3.5459e-06
-3.28703e-06
-3.59806e-06
-3.58676e-06
-3.49316e-06
-3.53139e-06
-3.67943e-06
-3.62024e-06
-3.57604e-06
-3.35316e-06
-3.41413e-06
-3.32479e-06
-3.34206e-06
-3.41445e-06
-3.54803e-06
-3.5181e-06
-3.48882e-06
-3.28907e-06
-3.55019e-06
-3.54781e-06
-3.39062e-06
-3.50791e-06
-3.64497e-06
-3.60002e-06
-3.56237e-06
-3.20963e-06
-3.54981e-06
-3.5466e-06
-3.47896e-06
-3.51604e-06
-3.51475e-06
-3.59973e-06
-3.51944e-06
-3.51362e-06
-3.43834e-06
-3.52535e-06
-3.58511e-06
-3.42532e-06
-3.38945e-06
-3.257e-06
-3.5459e-06
-3.44489e-06
-3.49243e-06
-3.70302e-06
-3.45877e-06
-3.47748e-06
-3.36693e-06
-3.50627e-06
-3.45413e-06
-3.4442e-06
-3.4477e-06
-3.49823e-06
-3.46637e-06
-3.27195e-06
-3.3442e-06
-3.47605e-06
-3.4273e-06
-3.46082e-06
-3.58522e-06
-3.37723e-06
-3.44839e-06
-3.54461e-06
-3.37715e-06
-3.32342e-06
-3.41723e-06
-3.33836e-06
-3.23901e-06
-3.45788e-06
-3.37943e-06
-3.66892e-06
-3.47553e-06
-3.37819e-06
-3.32371e-06
-3.40842e-06
-3.32582e-06
-3.25187e-06
-3.51682e-06
-3.52104e-06
-3.48159e-06
-3.40193e-06
-3.53725e-06
-3.26775e-06
-3.3733e-06
-3.36596e-06
-3.57213e-06
-3.31999e-06
-3.37067e-06
-3.49919e-06
-3.47102e-06
-3.56283e-06
-3.67184e-06
-3.4002e-06
-3.44198e-06
-3.53983e-06
-3.47833e-06
-3.31047e-06
-3.52878e-06
-3.70462e-06
-3.30801e-06
-3.33434e-06
-3.32656e-06
-3.44148e-06
-3.5396e-06
-3.59614e-06
-3.46426e-06
-3.58539e-06
-3.4794e-06
-3.50777e-06
-3.50599e-06
-3.51306e-06
-3.34532e-06
-3.61631e-06
-3.46311e-06
-3.4747e-06
-3.25309e-06
-3.38511e-06
-3.21966e-06
-3.39558e-06
-3.33499e-06
-3.58108e-06
-3.3613e-06
-3.45508e-06
-3.49909e-06
-3.51591e-06
-3.43542e-06
-3.55531e-06
-3.52196e-06
-3.56797e-06
-3.63847e-06
-3.41514e-06
-3.59006e-06
-3.43556e-06
-3.62788e-06
-3.40272e-06
-3.46046e-06
-3.48865e-06
-3.47934e-06
-3.47429e-06
-3.34258e-06
-3.62889e-06
-3.53763e-06
-3.44762e-06
-3.52962e-06
-3.62958e-06
-3.46281e-06
-3.37042e-06
-3.47201e-06
-3.68234e-06
-3.52333e-06
-3.43234e-06
-3.42767e-06
-3.5519e-06
-3.48145e-06
-3.51084e-06
-3.54722e-06
-3.42026e-06
-3.41155e-06
-3.51951e-06
-3.4808e-06
-3.35463e-06
-3.59265e-06
-3.55141e-06
-3.47846e-06
-3.27527e-06
-3.42291e-06
-3.17769e-06
-3.26433e-06
-3.32042e-06
-3.54463e-06
-3.4642e-06
-3.35266e-06
-3.61608e-06
-3.51217e-06
-3.47288e-06
-3.44916e-06
-3.40295e-06
-3.29587e-06
-3.53725e-06
-3.63949e-06
-3.55887e-06
-3.63774e-06
-3.25902e-06
-3.15278e-06
-3.45484e-06
-3.56462e-06
-3.43495e-06
-3.47245e-06
-3.5367e-06
-3.4535e-06
-3.48324e-06
-3.50445e-06
-3.4821e-06
-3.20455e-06
-3.37029e-06
-3.39651e-06
-3.38881e-06
-3.46139e-06
-3.27461e-06
-3.34922e-06
-3.41673e-06
-3.35177e-06
-3.36169e-06
-3.3518e-06
-3.49074e-06
-3.55684e-06
-3.55857e-06
-3.38517e-06
-3.41152e-06
-3.55218e-06
-3.37415e-06
-3.61853e-06
-3.35099e-06
-3.53188e-06
-3.33751e-06
-3.49419e-06
-3.36574e-06
-3.21017e-06
-3.54164e-06
-3.54337e-06
-3.41879e-06
-3.45568e-06
-3.4301e-06
-3.39612e-06
-3.49215e-06
-3.4864e-06
-3.52524e-06
-3.41625e-06
-3.30291e-06
-3.5775e-06
-3.39771e-06
-3.60076e-06
-3.65946e-06
-3.2989e-06
-3.46546e-06
-3.37882e-06
-3.55441e-06
-3.63004e-06
-3.37379e-06
-3.25055e-06
-3.37357e-06