# vtk DataFile Version 2.0
3D Surface
ASCII
DATASET UNSTRUCTURED_GRID
POINTS 15313 float
-1.2e-05 -1.225e-05 -1.01399e-05 
-1.2e-05 -1.2e-05 -1.01375e-05 
-1.225e-05 -1.225e-05 -1.01314e-05 
-1.225e-05 -1.2e-05 -1.01304e-05 
-1.175e-05 -1.225e-05 -1.01488e-05 
-1.175e-05 -1.2e-05 -1.0137e-05 
-1.15e-05 -1.225e-05 -1.01368e-05 
-1.15e-05 -1.2e-05 -1.01261e-05 
-1.125e-05 -1.225e-05 -1.01402e-05 
-1.125e-05 -1.2e-05 -1.01376e-05 
-1.1e-05 -1.225e-05 -1.01471e-05 
-1.1e-05 -1.2e-05 -1.01401e-05 
-1.075e-05 -1.225e-05 -1.01545e-05 
-1.075e-05 -1.2e-05 -1.01393e-05 
-1.05e-05 -1.225e-05 -1.01434e-05 
-1.05e-05 -1.2e-05 -1.01356e-05 
-1.025e-05 -1.225e-05 -1.01446e-05 
-1.025e-05 -1.2e-05 -1.01406e-05 
-1e-05 -1.225e-05 -1.01418e-05 
-1e-05 -1.2e-05 -1.01411e-05 
-9.75e-06 -1.225e-05 -1.01332e-05 
-9.75e-06 -1.2e-05 -1.01329e-05 
-9.5e-06 -1.225e-05 -1.01345e-05 
-9.5e-06 -1.2e-05 -1.0135e-05 
-9.25e-06 -1.225e-05 -1.01391e-05 
-9.25e-06 -1.2e-05 -1.01326e-05 
-9e-06 -1.225e-05 -1.01378e-05 
-9e-06 -1.2e-05 -1.01318e-05 
-8.75e-06 -1.225e-05 -1.01343e-05 
-8.75e-06 -1.2e-05 -1.01377e-05 
-8.5e-06 -1.225e-05 -1.01409e-05 
-8.5e-06 -1.2e-05 -1.01458e-05 
-8.25e-06 -1.225e-05 -1.01441e-05 
-8.25e-06 -1.2e-05 -1.01378e-05 
-8e-06 -1.225e-05 -1.01421e-05 
-8e-06 -1.2e-05 -1.01417e-05 
-7.75e-06 -1.225e-05 -1.01456e-05 
-7.75e-06 -1.2e-05 -1.01441e-05 
-7.5e-06 -1.225e-05 -1.01292e-05 
-7.5e-06 -1.2e-05 -1.01309e-05 
-7.25e-06 -1.225e-05 -1.01242e-05 
-7.25e-06 -1.2e-05 -1.01401e-05 
-7e-06 -1.225e-05 -1.01391e-05 
-7e-06 -1.2e-05 -1.01477e-05 
-6.75e-06 -1.225e-05 -1.01298e-05 
-6.75e-06 -1.2e-05 -1.01417e-05 
-6.5e-06 -1.225e-05 -1.01311e-05 
-6.5e-06 -1.2e-05 -1.01357e-05 
-6.25e-06 -1.225e-05 -1.0135e-05 
-6.25e-06 -1.2e-05 -1.01394e-05 
-6e-06 -1.225e-05 -1.01256e-05 
-6e-06 -1.2e-05 -1.01413e-05 
-5.75e-06 -1.225e-05 -1.01353e-05 
-5.75e-06 -1.2e-05 -1.01434e-05 
-5.5e-06 -1.225e-05 -1.01516e-05 
-5.5e-06 -1.2e-05 -1.01433e-05 
-5.25e-06 -1.225e-05 -1.0145e-05 
-5.25e-06 -1.2e-05 -1.01483e-05 
-5e-06 -1.225e-05 -1.01356e-05 
-5e-06 -1.2e-05 -1.01393e-05 
-4.75e-06 -1.225e-05 -1.01444e-05 
-4.75e-06 -1.2e-05 -1.01427e-05 
-4.5e-06 -1.225e-05 -1.01552e-05 
-4.5e-06 -1.2e-05 -1.01415e-05 
-4.25e-06 -1.225e-05 -1.01468e-05 
-4.25e-06 -1.2e-05 -1.01392e-05 
-4e-06 -1.225e-05 -1.01423e-05 
-4e-06 -1.2e-05 -1.01429e-05 
-3.75e-06 -1.225e-05 -1.01343e-05 
-3.75e-06 -1.2e-05 -1.01305e-05 
-3.5e-06 -1.225e-05 -1.01323e-05 
-3.5e-06 -1.2e-05 -1.01366e-05 
-3.25e-06 -1.225e-05 -1.01303e-05 
-3.25e-06 -1.2e-05 -1.01403e-05 
-3e-06 -1.225e-05 -1.01371e-05 
-3e-06 -1.2e-05 -1.01398e-05 
-2.75e-06 -1.225e-05 -1.01461e-05 
-2.75e-06 -1.2e-05 -1.01385e-05 
-2.5e-06 -1.225e-05 -1.01324e-05 
-2.5e-06 -1.2e-05 -1.01393e-05 
-2.25e-06 -1.225e-05 -1.01408e-05 
-2.25e-06 -1.2e-05 -1.01454e-05 
-2e-06 -1.225e-05 -1.01423e-05 
-2e-06 -1.2e-05 -1.01462e-05 
-1.75e-06 -1.225e-05 -1.01361e-05 
-1.75e-06 -1.2e-05 -1.01437e-05 
-1.5e-06 -1.225e-05 -1.01328e-05 
-1.5e-06 -1.2e-05 -1.01376e-05 
-1.25e-06 -1.225e-05 -1.01402e-05 
-1.25e-06 -1.2e-05 -1.01399e-05 
-1e-06 -1.225e-05 -1.01495e-05 
-1e-06 -1.2e-05 -1.0147e-05 
-7.5e-07 -1.225e-05 -1.01447e-05 
-7.5e-07 -1.2e-05 -1.0142e-05 
-5e-07 -1.225e-05 -1.01411e-05 
-5e-07 -1.2e-05 -1.01376e-05 
-2.5e-07 -1.225e-05 -1.01318e-05 
-2.5e-07 -1.2e-05 -1.01445e-05 
0 -1.225e-05 -1.01365e-05 
0 -1.2e-05 -1.0136e-05 
2.5e-07 -1.225e-05 -1.0133e-05 
2.5e-07 -1.2e-05 -1.01287e-05 
5e-07 -1.225e-05 -1.01359e-05 
5e-07 -1.2e-05 -1.01267e-05 
7.5e-07 -1.225e-05 -1.01331e-05 
7.5e-07 -1.2e-05 -1.01281e-05 
1e-06 -1.225e-05 -1.01372e-05 
1e-06 -1.2e-05 -1.014e-05 
1.25e-06 -1.225e-05 -1.01389e-05 
1.25e-06 -1.2e-05 -1.01478e-05 
1.5e-06 -1.225e-05 -1.01454e-05 
1.5e-06 -1.2e-05 -1.01442e-05 
1.75e-06 -1.225e-05 -1.01316e-05 
1.75e-06 -1.2e-05 -1.01414e-05 
2e-06 -1.225e-05 -1.01433e-05 
2e-06 -1.2e-05 -1.01428e-05 
2.25e-06 -1.225e-05 -1.01391e-05 
2.25e-06 -1.2e-05 -1.01403e-05 
2.5e-06 -1.225e-05 -1.01338e-05 
2.5e-06 -1.2e-05 -1.01381e-05 
2.75e-06 -1.225e-05 -1.01308e-05 
2.75e-06 -1.2e-05 -1.0134e-05 
3e-06 -1.225e-05 -1.01394e-05 
3e-06 -1.2e-05 -1.01398e-05 
3.25e-06 -1.225e-05 -1.01304e-05 
3.25e-06 -1.2e-05 -1.01294e-05 
3.5e-06 -1.225e-05 -1.01338e-05 
3.5e-06 -1.2e-05 -1.0139e-05 
3.75e-06 -1.225e-05 -1.01422e-05 
3.75e-06 -1.2e-05 -1.01395e-05 
4e-06 -1.225e-05 -1.01352e-05 
4e-06 -1.2e-05 -1.01355e-05 
4.25e-06 -1.225e-05 -1.01253e-05 
4.25e-06 -1.2e-05 -1.01422e-05 
4.5e-06 -1.225e-05 -1.01371e-05 
4.5e-06 -1.2e-05 -1.01393e-05 
4.75e-06 -1.225e-05 -1.01412e-05 
4.75e-06 -1.2e-05 -1.01336e-05 
5e-06 -1.225e-05 -1.01413e-05 
5e-06 -1.2e-05 -1.0133e-05 
5.25e-06 -1.225e-05 -1.0146e-05 
5.25e-06 -1.2e-05 -1.01384e-05 
5.5e-06 -1.225e-05 -1.01418e-05 
5.5e-06 -1.2e-05 -1.01429e-05 
5.75e-06 -1.225e-05 -1.01362e-05 
5.75e-06 -1.2e-05 -1.01403e-05 
6e-06 -1.225e-05 -1.01401e-05 
6e-06 -1.2e-05 -1.01353e-05 
6.25e-06 -1.225e-05 -1.01436e-05 
6.25e-06 -1.2e-05 -1.01347e-05 
6.5e-06 -1.225e-05 -1.01458e-05 
6.5e-06 -1.2e-05 -1.01415e-05 
6.75e-06 -1.225e-05 -1.01331e-05 
6.75e-06 -1.2e-05 -1.01521e-05 
7e-06 -1.225e-05 -1.0135e-05 
7e-06 -1.2e-05 -1.0144e-05 
7.25e-06 -1.225e-05 -1.01442e-05 
7.25e-06 -1.2e-05 -1.01416e-05 
7.5e-06 -1.225e-05 -1.01423e-05 
7.5e-06 -1.2e-05 -1.01391e-05 
7.75e-06 -1.225e-05 -1.01436e-05 
7.75e-06 -1.2e-05 -1.01388e-05 
8e-06 -1.225e-05 -1.01372e-05 
8e-06 -1.2e-05 -1.01306e-05 
8.25e-06 -1.225e-05 -1.01459e-05 
8.25e-06 -1.2e-05 -1.0146e-05 
8.5e-06 -1.225e-05 -1.01383e-05 
8.5e-06 -1.2e-05 -1.01339e-05 
8.75e-06 -1.225e-05 -1.01401e-05 
8.75e-06 -1.2e-05 -1.01377e-05 
9e-06 -1.225e-05 -1.0149e-05 
9e-06 -1.2e-05 -1.01353e-05 
9.25e-06 -1.225e-05 -1.01407e-05 
9.25e-06 -1.2e-05 -1.01485e-05 
9.5e-06 -1.225e-05 -1.01353e-05 
9.5e-06 -1.2e-05 -1.01379e-05 
9.75e-06 -1.225e-05 -1.01438e-05 
9.75e-06 -1.2e-05 -1.01437e-05 
1e-05 -1.225e-05 -1.01417e-05 
1e-05 -1.2e-05 -1.01426e-05 
1.025e-05 -1.225e-05 -1.01459e-05 
1.025e-05 -1.2e-05 -1.01309e-05 
1.05e-05 -1.225e-05 -1.01395e-05 
1.05e-05 -1.2e-05 -1.01266e-05 
1.075e-05 -1.225e-05 -1.01413e-05 
1.075e-05 -1.2e-05 -1.01343e-05 
1.1e-05 -1.225e-05 -1.01425e-05 
1.1e-05 -1.2e-05 -1.01404e-05 
1.125e-05 -1.225e-05 -1.01414e-05 
1.125e-05 -1.2e-05 -1.01352e-05 
1.15e-05 -1.225e-05 -1.01535e-05 
1.15e-05 -1.2e-05 -1.01398e-05 
1.175e-05 -1.225e-05 -1.01512e-05 
1.175e-05 -1.2e-05 -1.01366e-05 
1.2e-05 -1.225e-05 -1.01367e-05 
1.2e-05 -1.2e-05 -1.01292e-05 
1.225e-05 -1.225e-05 -1.01314e-05 
1.225e-05 -1.2e-05 -1.01304e-05 
-1.2e-05 -1.175e-05 -1.01406e-05 
-1.225e-05 -1.175e-05 -1.0135e-05 
-1.175e-05 -1.175e-05 -1.01366e-05 
-1.15e-05 -1.175e-05 -1.01337e-05 
-1.125e-05 -1.175e-05 -1.01339e-05 
-1.1e-05 -1.175e-05 -1.01355e-05 
-1.075e-05 -1.175e-05 -1.01313e-05 
-1.05e-05 -1.175e-05 -1.01391e-05 
-1.025e-05 -1.175e-05 -1.01347e-05 
-1e-05 -1.175e-05 -1.01392e-05 
-9.75e-06 -1.175e-05 -1.01398e-05 
-9.5e-06 -1.175e-05 -1.01353e-05 
-9.25e-06 -1.175e-05 -1.01417e-05 
-9e-06 -1.175e-05 -1.0141e-05 
-8.75e-06 -1.175e-05 -1.01359e-05 
-8.5e-06 -1.175e-05 -1.01358e-05 
-8.25e-06 -1.175e-05 -1.0139e-05 
-8e-06 -1.175e-05 -1.01397e-05 
-7.75e-06 -1.175e-05 -1.01414e-05 
-7.5e-06 -1.175e-05 -1.01477e-05 
-7.25e-06 -1.175e-05 -1.01472e-05 
-7e-06 -1.175e-05 -1.01436e-05 
-6.75e-06 -1.175e-05 -1.01369e-05 
-6.5e-06 -1.175e-05 -1.01357e-05 
-6.25e-06 -1.175e-05 -1.01532e-05 
-6e-06 -1.175e-05 -1.01403e-05 
-5.75e-06 -1.175e-05 -1.01394e-05 
-5.5e-06 -1.175e-05 -1.01393e-05 
-5.25e-06 -1.175e-05 -1.01421e-05 
-5e-06 -1.175e-05 -1.01323e-05 
-4.75e-06 -1.175e-05 -1.01483e-05 
-4.5e-06 -1.175e-05 -1.01306e-05 
-4.25e-06 -1.175e-05 -1.01331e-05 
-4e-06 -1.175e-05 -1.01429e-05 
-3.75e-06 -1.175e-05 -1.0137e-05 
-3.5e-06 -1.175e-05 -1.01434e-05 
-3.25e-06 -1.175e-05 -1.01448e-05 
-3e-06 -1.175e-05 -1.01354e-05 
-2.75e-06 -1.175e-05 -1.01328e-05 
-2.5e-06 -1.175e-05 -1.01288e-05 
-2.25e-06 -1.175e-05 -1.01382e-05 
-2e-06 -1.175e-05 -1.01518e-05 
-1.75e-06 -1.175e-05 -1.01447e-05 
-1.5e-06 -1.175e-05 -1.01337e-05 
-1.25e-06 -1.175e-05 -1.01456e-05 
-1e-06 -1.175e-05 -1.01364e-05 
-7.5e-07 -1.175e-05 -1.01361e-05 
-5e-07 -1.175e-05 -1.0132e-05 
-2.5e-07 -1.175e-05 -1.01504e-05 
0 -1.175e-05 -1.01452e-05 
2.5e-07 -1.175e-05 -1.01456e-05 
5e-07 -1.175e-05 -1.0131e-05 
7.5e-07 -1.175e-05 -1.01353e-05 
1e-06 -1.175e-05 -1.0146e-05 
1.25e-06 -1.175e-05 -1.01392e-05 
1.5e-06 -1.175e-05 -1.01394e-05 
1.75e-06 -1.175e-05 -1.01463e-05 
2e-06 -1.175e-05 -1.01423e-05 
2.25e-06 -1.175e-05 -1.01394e-05 
2.5e-06 -1.175e-05 -1.01366e-05 
2.75e-06 -1.175e-05 -1.01395e-05 
3e-06 -1.175e-05 -1.0138e-05 
3.25e-06 -1.175e-05 -1.01418e-05 
3.5e-06 -1.175e-05 -1.01451e-05 
3.75e-06 -1.175e-05 -1.01346e-05 
4e-06 -1.175e-05 -1.01288e-05 
4.25e-06 -1.175e-05 -1.01412e-05 
4.5e-06 -1.175e-05 -1.01365e-05 
4.75e-06 -1.175e-05 -1.01413e-05 
5e-06 -1.175e-05 -1.01409e-05 
5.25e-06 -1.175e-05 -1.01387e-05 
5.5e-06 -1.175e-05 -1.01361e-05 
5.75e-06 -1.175e-05 -1.01405e-05 
6e-06 -1.175e-05 -1.01449e-05 
6.25e-06 -1.175e-05 -1.01372e-05 
6.5e-06 -1.175e-05 -1.01344e-05 
6.75e-06 -1.175e-05 -1.01462e-05 
7e-06 -1.175e-05 -1.01411e-05 
7.25e-06 -1.175e-05 -1.01399e-05 
7.5e-06 -1.175e-05 -1.01507e-05 
7.75e-06 -1.175e-05 -1.01438e-05 
8e-06 -1.175e-05 -1.01405e-05 
8.25e-06 -1.175e-05 -1.01413e-05 
8.5e-06 -1.175e-05 -1.01385e-05 
8.75e-06 -1.175e-05 -1.01391e-05 
9e-06 -1.175e-05 -1.01353e-05 
9.25e-06 -1.175e-05 -1.01419e-05 
9.5e-06 -1.175e-05 -1.01316e-05 
9.75e-06 -1.175e-05 -1.01431e-05 
1e-05 -1.175e-05 -1.01432e-05 
1.025e-05 -1.175e-05 -1.01352e-05 
1.05e-05 -1.175e-05 -1.01329e-05 
1.075e-05 -1.175e-05 -1.01426e-05 
1.1e-05 -1.175e-05 -1.01456e-05 
1.125e-05 -1.175e-05 -1.01435e-05 
1.15e-05 -1.175e-05 -1.01433e-05 
1.175e-05 -1.175e-05 -1.01363e-05 
1.2e-05 -1.175e-05 -1.01371e-05 
1.225e-05 -1.175e-05 -1.0135e-05 
-1.2e-05 -1.15e-05 -1.01453e-05 
-1.225e-05 -1.15e-05 -1.01397e-05 
-1.175e-05 -1.15e-05 -1.01388e-05 
-1.15e-05 -1.15e-05 -1.01353e-05 
[...]
POINT_DATA 15313
SCALARS Velocities float 1
LOOKUP_TABLE default
-3.41817e-06
-3.5782e-06
-3.30877e-06
-3.47989e-06
-3.70305e-06
-3.65812e-06
-3.28159e-06
-3.4928e-06
-3.38083e-06
-3.415e-06
-3.4566e-06
-3.53394e-06
-3.37894e-06
-3.50098e-06
-3.38361e-06
-3.7105e-06
-3.26601e-06
-3.40401e-06
-3.49223e-06
-3.4738e-06
-3.45529e-06
-3.42988e-06
-3.42522e-06
-3.4385e-06
-3.50985e-06
-3.47395e-06
-3.64688e-06
-3.43542e-06
-3.48434e-06
-3.40656e-06
-3.31096e-06
-3.34891e-06
-3.43984e-06
-3.47626e-06
-3.44925e-06
-3.46048e-06
-3.35151e-06
-3.5004e-06
-3.59462e-06
-3.27703e-06
-3.34675e-06
-3.31169e-06
-3.4156e-06
-3.59905e-06
-3.46439e-06
-3.33002e-06
-3.48884e-06
-3.58519e-06
-3.51671e-06
-3.59803e-06
-3.38711e-06
-3.3124e-06
-3.48792e-06
-3.35349e-06
-3.60508e-06
-3.75532e-06
-3.42607e-06
-3.40038e-06
-3.52293e-06
-3.44307e-06
-3.44556e-06
-3.5209e-06
-3.34299e-06
-3.56212e-06
-3.38553e-06
-3.52676e-06
-3.47988e-06
-3.57897e-06
-3.53233e-06
-3.36629e-06
-3.28489e-06
-3.40362e-06
-3.29886e-06
-3.43938e-06
-3.5475e-06
-3.48754e-06
-3.439e-06
-3.4418e-06
-3.42535e-06
-3.75224e-06
-3.57033e-06
-3.47842e-06
-3.32378e-06
-3.38349e-06
-3.40291e-06
-3.45175e-06
-3.3609e-06
-3.29603e-06
-3.39442e-06
-3.15783e-06
-3.67256e-06
-3.41358e-06
-3.52136e-06
-3.24819e-06
-3.53343e-06
-3.56803e-06
-3.55388e-06
-3.49776e-06
-3.47226e-06
-3.42004e-06
-3.35397e-06
-3.3784e-06
-3.46687e-06
-3.54921e-06
-3.51375e-06
-3.43918e-06
-3.47402e-06
-3.36338e-06
-3.42872e-06
-3.34905e-06
-3.2797e-06
-3.32246e-06
-3.39736e-06
-3.37521e-06
-3.4249e-06
-3.63587e-06
-3.33841e-06
-3.47384e-06
-3.34058e-06
-3.42344e-06
-3.44152e-06
-3.43884e-06
-3.50888e-06
-3.24589e-06
-3.41147e-06
-3.41343e-06
-3.46147e-06
-3.43238e-06
-3.5818e-06
-3.64785e-06
-3.31328e-06
-3.36583e-06
-3.56543e-06
-3.32381e-06
-3.33332e-06
-3.32736e-06
-3.43648e-06
-3.41752e-06
-3.68429e-06
-3.55718e-06
-3.66934e-06
-3.42463e-06
-3.61211e-06
-3.40307e-06
-3.66482e-06
-3.60861e-06
-3.60096e-06
-3.45699e-06
-3.41444e-06
-3.55335e-06
-3.38819e-06
-3.48488e-06
-3.26901e-06
-3.3326e-06
-3.37917e-06
-3.30608e-06
-3.22343e-06
-3.44427e-06
-3.39409e-06
-3.43608e-06
-3.29715e-06
-3.24667e-06
-3.30298e-06
-3.30516e-06
-3.29553e-06
-3.39587e-06
-3.37465e-06
-3.41639e-06
-3.58898e-06
-3.5242e-06
-3.34457e-06
-3.37661e-06
-3.61421e-06
-3.36972e-06
-3.777e-06
-3.55191e-06
-3.5283e-06
-3.25271e-06
-3.54329e-06
-3.36996e-06
-3.52756e-06
-3.63797e-06
-3.53481e-06
-3.63867e-06
-3.32899e-06
-3.48416e-06
-3.27666e-06
-3.46022e-06
-3.51829e-06
-3.4305e-06
-3.52704e-06
-3.5699e-06
-3.4095e-06
-3.38905e-06
-3.34021e-06
-3.48714e-06
-3.30877e-06
-3.47989e-06
-3.36978e-06
-3.30191e-06
-3.39697e-06
-3.60275e-06
-3.43151e-06
-3.63824e-06
-3.47723e-06
-3.36572e-06
-3.47546e-06
-3.47897e-06
-3.43268e-06
-3.4675e-06
-3.52323e-06
-3.37029e-06
-3.51661e-06
-3.42893e-06
-3.30315e-06
-3.42414e-06
-3.72567e-06
-3.63406e-06
-3.49101e-06
-3.54651e-06
-3.4321e-06
-3.38972e-06
-3.39289e-06
-3.46294e-06
-3.44193e-06
-3.41408e-06
-3.30253e-06
-3.26923e-06
-3.42484e-06
-3.69249e-06
-3.66849e-06
-3.7236e-06
-3.64202e-06
-3.39704e-06
-3.40114e-06
-3.42932e-06
-3.42253e-06
-3.80403e-06
-3.50266e-06
-3.39915e-06
-3.40861e-06
-3.31214e-06
-3.26297e-06
-3.36621e-06
-3.26346e-06
-3.49615e-06
-3.30652e-06
-3.55028e-06
-3.35076e-06
-3.24348e-06
-3.5155e-06
-3.37995e-06
-3.26498e-06
-3.57202e-06
-3.37064e-06
-3.39843e-06
-3.30324e-06
-3.28232e-06
-3.39398e-06
-3.29777e-06
-3.29385e-06
-3.44148e-06
-3.53563e-06
-3.49651e-06
-3.6394e-06
-3.36594e-06
-3.30542e-06
-3.13643e-06
-3.40794e-06
-3.4488e-06
-3.44005e-06
-3.51451e-06
-3.78216e-06
-3.62043e-06
-3.4676e-06
-3.40319e-06
-3.47399e-06
-3.39602e-06
-3.40062e-06
-3.60004e-06
-3.52577e-06
-3.4845e-06
-3.40214e-06
-3.48817e-06
-3.42355e-06
-3.33114e-06
-3.44256e-06
-3.60131e-06
-3.72813e-06
-3.80386e-06
-3.3965e-06
-3.59089e-06
-3.53231e-06
-3.45751e-06
-3.43056e-06
-3.44056e-06
-3.30191e-06
-3.15654e-06
-3.31483e-06
-3.41875e-06
-3.55031e-06
-3.34922e-06
-3.40996e-06
-3.46662e-06
-3.44823e-06
-3.60304e-06
-3.47952e-06
-3.37949e-06
-3.35483e-06
-3.40913e-06
-3.49988e-06
-3.33243e-06
-3.38727e-06
-3.35852e-06
-3.42801e-06
-3.22358e-06
-3.26912e-06
-3.32422e-06
-3.42477e-06
-3.56105e-06
-3.52323e-06
-3.41353e-06
-3.45981e-06
-3.46889e-06
-3.4662e-06
-3.44484e-06
-3.35655e-06
-3.5622e-06
-3.78916e-06
-3.52174e-06
-3.59058e-06
-3.51042e-06
-3.24055e-06
-3.2581e-06
-3.57671e-06
-3.33076e-06
-3.4723e-06
-3.58802e-06
-3.44202e-06
-3.49383e-06
-3.42456e-06
-3.46201e-06
-3.53479e-06
-3.37369e-06
-3.30026e-06
-3.42427e-06
-3.64115e-06
-3.54062e-06
-3.48093e-06
-3.45785e-06
-3.60536e-06
-3.32898e-06
-3.44268e-06
-3.46109e-06
-3.39998e-06
-3.34656e-06
-3.32134e-06
-3.33848e-06
-3.50012e-06
-3.55339e-06
-3.67737e-06
-3.49601e-06
-3.45627e-06
-3.6582e-06
-3.66163e-06
-3.43299e-06
-3.56227e-06
-3.42316e-06
-3.64037e-06
-3.49362e-06
-3.68728e-06
-3.49718e-06
-3.53561e-06
-3.41711e-06
-3.48709e-06
-3.45495e-06
-3.45376e-06
-3.12535e-06
-3.23889e-06
-3.47382e-06
-3.48847e-06
-3.48101e-06
-3.55557e-06
-3.36109e-06
-3.40977e-06
-3.48346e-06
-3.49102e-06
-3.41843e-06
-3.54291e-06
-3.25107e-06
-3.40475e-06
-3.56727e-06
-3.27626e-06
-3.08651e-06
-3.55728e-06
-3.31483e-06
-3.21161e-06
-3.04131e-06
-3.35087e-06
-3.42067e-06
-3.41581e-06
-3.74459e-06
-3.44724e-06
-3.38544e-06
-3.28505e-06
-3.11727e-06
-3.41652e-06
-3.68895e-06
-3.58977e-06
-3.53999e-06
-3.39538e-06
-3.27569e-06
-3.33068e-06
-3.33625e-06
-3.33506e-06
-3.40923e-06
-3.46597e-06
-3.38384e-06
-3.50376e-06
-3.22218e-06
-3.44113e-06
-3.34166e-06
-3.51916e-06
-3.54886e-06
-3.54e-06
-3.37627e-06
-3.51014e-06
-3.44774e-06
-3.44215e-06
-3.33749e-06
-3.21405e-06
-3.08104e-06
-3.39416e-06
-3.58317e-06
-3.59405e-06
-3.58964e-06
-3.46296e-06
-3.62255e-06
-3.32513e-06
-3.27198e-06
-3.19404e-06
-3.31776e-06
-3.34398e-06
-3.58846e-06
-3.42203e-06
-3.50304e-06
-3.51027e-06
-3.50851e-06
-3.49056e-06
-3.20468e-06
-3.34144e-06
-3.59393e-06
-3.38954e-06
-3.44708e-06
-3.4877e-06
-3.58968e-06
-3.71506e-06
-3.62097e-06
-3.53831e-06
-3.42708e-06
-3.46565e-06
-3.43451e-06
-3.43622e-06
-3.62871e-06
-3.44545e-06
-3.3683e-06
-3.58172e-06
-3.47777e-06
-3.4556e-06
-3.58749e-06
-3.28758e-06
-3.29702e-06
-3.24025e-06
-3.41458e-06
-3.44242e-06
-3.62651e-06
-3.53515e-06
-3.23556e-06
-3.38796e-06
-3.36219e-06
-3.35778e-06
-3.51432e-06
-3.38659e-06
-3.59539e-06
-3.54144e-06
-3.3368e-06
-3.34013e-06
-3.46275e-06
-3.32586e-06
-3.32166e-06
-3.36454e-06
-3.50839e-06
-3.47387e-06
-3.54067e-06
-3.04131e-06
-3.29994e-06
-3.27425e-06
-3.47963e-06
-3.51688e-06
-3.28216e-06
-3.56456e-06
-3.26405e-06
-3.45395e-06
-3.53192e-06
-3.3908e-06
-3.49085e-06
-3.67752e-06
-3.52464e-06
-3.29739e-06
-3.37777e-06
-3.2345e-06
-3.50348e-06
-3.60668e-06
-3.52569e-06
-3.29844e-06
-3.45901e-06
-3.66975e-06
-3.58633e-06
-3.45071e-06
-3.4275e-06
-3.40607e-06
-3.47244e-06
-3.3327e-06
-3.39152e-06
-3.5641e-06
-3.54329e-06
-3.34311e-06
-3.38341e-06
-3.30052e-06
-3.3904e-06
-3.33199e-06
-3.52411e-06
-3.65432e-06
-3.44049e-06
-3.47909e-06
-3.40142e-06
-3.74411e-06
-3.44833e-06
-3.38106e-06
-3.50407e-06
-3.51561e-06
-3.29839e-06
-3.58887e-06
-3.58725e-06
-3.54536e-06
-3.29558e-06
-3.2273e-06
-3.38119e-06
-3.3721e-06
-3.4691e-06
-3.42716e-06
-3.36704e-06
-3.37217e-06
-3.45858e-06
-3.43466e-06
-3.60462e-06
-3.62013e-06
-3.4283e-06
-3.3e-06
-3.43522e-06
-3.33986e-06
-3.48541e-06
-3.50714e-06
-3.49466e-06
-3.40138e-06
-3.64541e-06
-3.49025e-06
-3.31237e-06
-3.40956e-06
-3.53589e-06
-3.41338e-06
-3.41926e-06
-3.59141e-06
-3.51964e-06
-3.45353e-06
-3.21982e-06
-3.3202e-06
-3.40883e-06
-3.57068e-06
-3.5249e-06
-3.59812e-06
-3.42488e-06
-3.41327e-06
-3.53029e-06
-3.4205e-06
-3.35032e-06
-3.27378e-06
-3.31544e-06
-3.44898e-06
-3.31168e-06
-3.47495e-06
-3.48849e-06
-3.49426e-06
-3.27425e-06
-3.38055e-06
-3.31147e-06
-3.47172e-06
-3.33207e-06
-3.17032e-06
-3.25554e-06
-3.13893e-06
-3.46886e-06
-3.32521e-06
-3.20288e-06
-3.22744e-06
-3.23709e-06
-3.36421e-06
-3.37457e-06
-3.20566e-06
-3.28379e-06
-3.30395e-06
-3.62822e-06
-3.4193e-06
-3.42395e-06
-3.48866e-06
-3.7048e-06
-3.63216e-06
-3.48649e-06
-3.42783e-06
-3.47387e-06
-3.51609e-06
-3.56946e-06
-3.34294e-06
-3.53527e-06
-3.52292e-06
-3.57942e-06
-3.30514e-06
-3.46431e-06
-3.25437e-06
-3.24635e-06
-3.4659e-06
-3.56597e-06
-3.5567e-06
-3.48136e-06
-3.6313e-06
-3.61018e-06
-3.52289e-06
-3.55667e-06
-3.50563e-06
-3.49209e-06
-3.37649e-06
-3.63578e-06
-3.5124e-06
-3.57855e-06
-3.51736e-06
-3.30457e-06
-3.07595e-06
-3.26748e-06
-3.53704e-06
-3.65844e-06
-3.48387e-06
-3.54315e-06
-3.35214e-06
-3.37998e-06
-3.41865e-06
-3.36263e-06
-3.38928e-06
-3.22131e-06
-3.37607e-06
-3.49215e-06
-3.6295e-06
-3.33749e-06
-3.45732e-06
-3.38145e-06
-3.48892e-06
-3.72333e-06
-3.37763e-06
-3.44614e-06
-3.54414e-06
-3.63138e-06
-3.44176e-06
-3.69522e-06
-3.49798e-06
-3.48178e-06
-3.4451e-06
-3.49937e-06
-3.4702e-06
-3.64222e-06
-3.7064e-06
-3.55424e-06
-3.48565e-06
-3.49047e-06
-3.46835e-06
-3.32986e-06
-3.50754e-06
-3.38689e-06
-3.36561e-06
-3.5751e-06
-3.33243e-06
-3.38807e-06
-3.37286e-06
-3.35394e-06
-3.31147e-06
-3.57793e-06
-3.37602e-06
-3.34578e-06
-3.66808e-06
-3.3043e-06
-3.4772e-06
-3.38384e-06
-3.48539e-06
-3.43812e-06
-3.30286e-06
-3.3596e-06
-3.29958e-06
-3.33903e-06
-3.43849e-06
-3.49226e-06
-3.33383e-06
-3.46986e-06
-3.57279e-06
-3.49884e-06
-3.24988e-06
-3.40591e-06
-3.56014e-06
-3.41431e-06
-3.45246e-06
-3.51152e-06
-3.40775e-06
-3.27088e-06
-3.38285e-06
-3.25365e-06
-3.28706e-06
-3.33548e-06
-3.5101e-06
-3.42073e-06
-3.43701e-06
-3.27085e-06
-3.16507e-06
-3.45081e-06
-3.5817e-06
-3.67878e-06
-3.59913e-06
-3.52566e-06
-3.31586e-06
-3.26335e-06
-3.56408e-06
-3.39433e-06
-3.41565e-06
-3.45165e-06
-3.48441e-06
-3.2619e-06
-3.39069e-06
-3.48813e-06
-3.45226e-06
-3.55418e-06
-3.68255e-06
-3.53808e-06
-3.54215e-06
-3.42185e-06
-3.49384e-06
-3.4939e-06
-3.45251e-06
-3.46487e-06
-3.45476e-06
-3.25141e-06
-3.49708e-06
-3.44638e-06
-3.43309e-06
-3.65791e-06
-3.56784e-06
-3.46308e-06
-3.44181e-06
-3.3424e-06
-3.6099e-06
-3.22232e-06
-3.5014e-06
-3.47798e-06
-3.57092e-06
-3.40009e-06
-3.59768e-06
-3.47728e-06
-3.44089e-06
-3.67051e-06
-3.52148e-06
-3.2274e-06
-3.70034e-06
-3.54612e-06
-3.35631e-06
-3.35203e-06
-3.34789e-06
-3.39141e-06
-3.27348e-06
-3.52027e-06
-3.55771e-06
-3.49789e-06
-3.50191e-06
-3.55543e-06
-3.56271e-06
-3.58573e-06
-3.35762e-06
-3.37602e-06
-3.55967e-06
-3.41872e-06
-3.33428e-06
-3.5966e-06
-3.30269e-06
-3.49865e-06
-3.38217e-06
-3.55568e-06
-3.32519e-06
-3.48915e-06
-3.41847e-06
-3.45698e-06
-3.41962e-06
-3.42321e-06
-3.45481e-06
-3.43215e-06
-3.35014e-06
-3.58563e-06
-3.55815e-06
-3.41945e-06
-3.42423e-06
-3.39662e-06
-3.51424e-06
-3.52568e-06
-3.64866e-06
-3.52861e-06
-3.24698e-06
-3.42809e-06
-3.51803e-06
-3.11936e-06
-3.4576e-06
-3.24558e-06
-3.26815e-06
-3.33868e-06
-3.63169e-06
-3.59376e-06
-3.55704e-06
-3.34086e-06
-3.45834e-06
-3.52346e-06
-3.48488e-06
-3.45091e-06
-3.52918e-06
-3.60389e-06
-3.43628e-06
-3.47361e-06
-3.61058e-06
-3.47532e-06
-3.32816e-06
-3.37255e-06
-3.48699e-06
-3.43816e-06
-3.62086e-06
-3.58516e-06
-3.67576e-06
-3.69214e-06
-3.46366e-06
-3.79467e-06
-3.68206e-06
-3.50646e-06
-3.48372e-06
-3.56013e-06
-3.34887e-06
-3.57759e-06
-3.46829e-06
-3.27324e-06
-3.27717e-06
-3.44533e-06
-3.2965e-06
-3.34553e-06
-3.37889e-06
-3.35162e-06
-3.39561e-06
-3.56687e-06
-3.36373e-06
-3.39934e-06
-3.43367e-06
-3.55819e-06
-3.43892e-06
-3.28965e-06
-3.40756e-06
-3.44388e-06
-3.57923e-06
-3.5163e-06
-3.39842e-06
-3.34903e-06
-3.40706e-06
-3.30483e-06
-3.3991e-06
-3.27508e-06
-3.48296e-06
-3.49053e-06
-3.34956e-06
-3.11605e-06
-3.23161e-06
-3.27964e-06
-3.37932e-06
-3.286e-06
-3.41872e-06
-3.44364e-06
-3.50856e-06
-3.40008e-06
-3.57717e-06
-3.56908e-06
-3.40287e-06
-3.45425e-06
-3.58531e-06
-3.22078e-06
-3.35165e-06
-3.51401e-06
-3.41772e-06
-3.29773e-06
-3.53948e-06
-3.45495e-06
-3.36352e-06
-3.33365e-06
-3.41323e-06
-3.40065e-06
-3.53296e-06
-3.70624e-06
-3.61508e-06
-3.32576e-06
-3.31885e-06
-3.53198e-06
-3.29675e-06
-3.37001e-06
-3.31967e-06
-3.64205e-06
-3.48335e-06
-3.63945e-06
-3.48951e-06
-3.48007e-06
-3.3618e-06
-3.33902e-06
-3.64108e-06
-3.70875e-06
-3.44083e-06
-3.33213e-06
-3.52048e-06
-3.66194e-06
-3.62474e-06
-3.6566e-06
-3.57698e-06
-3.33122e-06
-3.35543e-06
-3.44129e-06
-3.32426e-06
-3.22166e-06
-3.45549e-06
-3.55476e-06
-3.61521e-06
-3.66645e-06
-3.62211e-06
-3.52201e-06
-3.49e-06
-3.4382e-06
-3.49022e-06
-3.51021e-06
-3.4516e-06
-3.45368e-06
-3.37866e-06
-3.35296e-06
-3.46553e-06
-3.42902e-06
-3.3638e-06
-3.56448e-06
-3.45335e-06
-3.49753e-06
-3.49803e-06
-3.65635e-06
-3.39297e-06
-3.38981e-06
-3.66131e-06
-3.34225e-06
-3.47605e-06
-3.50339e-06
-3.30318e-06
-3.37295e-06
-3.48818e-06
-3.40776e-06
-3.49352e-06
-3.51289e-06
-3.39427e-06
-3.435e-06
-3.34461e-06
-3.35495e-06
-3.38127e-06
-3.32063e-06
-3.22615e-06
-3.48224e-06
-3.55394e-06
-3.33093e-06
-3.35321e-06
-3.36569e-06
-3.46709e-06
-3.36939e-06
-3.33437e-06
-3.50856e-06
-3.31893e-06
-3.70993e-06
-3.38962e-06
-3.55851e-06
-3.63916e-06
-3.43824e-06
-3.46423e-06
-3.55266e-06
-3.42272e-06
-3.31937e-06
-3.33845e-06
-3.42894e-06
-3.30565e-06
-3.29819e-06
-3.38799e-06
-3.67804e-06
-3.59808e-06
-3.49611e-06
-3.30595e-06
-3.23737e-06
-3.57927e-06
-3.51138e-06
-3.36211e-06
-3.32226e-06
-3.46799e-06
-3.47534e-06
-3.55885e-06
-3.39886e-06
-3.4567e-06
-3.70504e-06
-3.68443e-06
-3.42205e-06
-3.48e-06
-3.42109e-06
-3.5129e-06
-3.38046e-06
-3.43889e-06
-3.42457e-06
-3.29629e-06
-3.78937e-06
-3.47081e-06
-3.54851e-06
-3.42506e-06
-3.37917e-06
-3.53421e-06
-3.57164e-06
-3.53698e-06
-3.43872e-06
-3.35026e-06
-3.32896e-06
-3.35872e-06
-3.21167e-06
-3.78309e-06
-3.44187e-06
-3.29133e-06
-3.21224e-06
-3.36348e-06
-3.29251e-06
-3.32328e-06
-3.53861e-06
-3.57395e-06
-3.35499e-06
-3.54865e-06
-3.53105e-06
-3.50934e-06
-3.60284e-06
-3.49906e-06
-3.4559e-06
-3.41587e-06
-3.53392e-06
-3.58669e-06
-3.29338e-06
-3.40815e-06
-3.61463e-06
-3.49673e-06
-3.47975e-06
-3.47823e-06
-3.60307e-06
-3.51428e-06
-3.47276e-06
-3.62439e-06
-3.50312e-06
-3.40933e-06
-3.37524e-06
-3.48576e-06
-3.37143e-06
-3.53245e-06
-3.62492e-06
-3.69443e-06
-3.51467e-06
-3.36113e-06
-3.42499e-06
-3.54954e-06
-3.46273e-06
-3.61616e-06
-3.59821e-06
-3.49887e-06
-3.3963e-06
-3.70993e-06
-3.23169e-06
-3.47317e-06
-3.31888e-06
-3.45155e-06
-3.45302e-06
-3.36188e-06
-3.37151e-06
-3.62146e-06
-3.44828e-06
-3.32813e-06
-3.44709e-06
-3.51612e-06
-3.57382e-06
-3.48906e-06
-3.51275e-06
-3.42435e-06
-3.36538e-06
-3.5113e-06
-3.47933e-06
-3.46085e-06
-3.43115e-06
-3.6023e-06
-3.43753e-06
-3.42753e-06
-3.46931e-06
-3.54553e-06
-3.63894e-06
-3.57368e-06
-3.59047e-06
-3.62091e-06
-3.48204e-06
-3.44448e-06
-3.41323e-06
-3.33104e-06
-3.32597e-06
-3.4522e-06
-3.49516e-06
-3.37502e-06
-3.53088e-06
-3.45753e-06
-3.23278e-06
-3.58658e-06
-3.35653e-06
-3.21052e-06
-3.21231e-06
-3.39709e-06
-3.38254e-06
-3.32798e-06
-3.58744e-06
-3.48523e-06
-3.58804e-06
-3.36928e-06
-3.47374e-06
-3.4289e-06
-3.42978e-06
-3.58012e-06
-3.56818e-06
-3.3626e-06
-3.33024e-06
-3.47527e-06
-3.5393e-06
-3.6028e-06
-3.47949e-06
-3.48449e-06
-3.52208e-06
-3.63178e-06
-3.43774e-06
-3.58558e-06
-3.42279e-06
-3.57127e-06
-3.41793e-06
-3.56489e-06
-3.49981e-06
-3.39045e-06
-3.4447e-06
-3.48241e-06
-3.32133e-06
-3.49973e-06
-3.59475e-06
-3.45568e-06
-3.54042e-06
-3.51181e-06
-3.58964e-06
-3.54909e-06
-3.57627e-06
-3.50721e-06
-3.30381e-06
-3.48556e-06
-3.63723e-06
-3.39759e-06
-3.37366e-06
-3.50695e-06
-3.47444e-06
-3.24405e-06
-3.38553e-06
-3.27722e-06
-3.62796e-06
-3.3584e-06
-3.47317e-06
-3.48762e-06
-3.39532e-06
-3.54533e-06
-3.44997e-06
-3.3071e-06
-3.26548e-06
-3.49069e-06
-3.57942e-06
-3.73523e-06
-3.51885e-06
-3.33956e-06
-3.35594e-06
-3.36201e-06
-3.51015e-06
-3.42252e-06
-3.40928e-06
-3.19285e-06
-3.41261e-06
-3.32757e-06
-3.58547e-06
-3.47421e-06
-3.48296e-06
-3.30541e-06
-3.37352e-06
-3.279e-06
-3.42277e-06
-3.55496e-06
-3.62887e-06
-3.40294e-06
-3.35656e-06
-3.39423e-06
-3.38466e-06
-3.43682e-06
-3.37602e-06
-3.70707e-06
-3.66666e-06
-3.50406e-06
-3.35225e-06
-3.36048e-06
-3.32155e-06
-3.43283e-06
-3.43187e-06
-3.54715e-06
-3.41123e-06
-3.51586e-06
-3.44806e-06
-3.44677e-06
-3.31719e-06
-3.52494e-06
-3.48794e-06
-3.53109e-06
-3.41687e-06
-3.281e-06
-3.33449e-06
-3.49381e-06
-3.49741e-06
-3.53327e-06
-3.40902e-06
-3.54796e-06
-3.65959e-06
-3.58966e-06
-3.31887e-06
-3.3595e-06
-3.542e-06
-3.72151e-06
-3.5243e-06
-3.54311e-06
-3.47655e-06
-3.23529e-06
-3.378e-06
-3.48502e-06
-3.41053e-06
-3.34324e-06
-3.3127e-06
-3.56096e-06
-3.41107e-06
-3.43604e-06
-3.20001e-06
-3.47507e-06
-3.65708e-06
-3.53195e-06
-3.63787e-06
-3.45612e-06
-3.61912e-06
-3.52577e-06
-3.45399e-06
-3.52391e-06
-3.38367e-06
-3.66511e-06
-3.47895e-06
-3.63279e-06
-3.68505e-06
-3.54824e-06
-3.4439e-06
-3.40628e-06
-3.37649e-06
-3.51097e-06
-3.39221e-06
-3.39532e-06
-3.63009e-06
-3.61707e-06
-3.4737e-06
-3.23443e-06
-3.23224e-06
-3.18743e-06
-3.48906e-06
-3.59402e-06
-3.42852e-06
-3.32399e-06
-3.34726e-06
-3.39078e-06
-3.40907e-06
-3.37188e-06
-3.29297e-06
-3.38486e-06
-3.36605e-06
-3.43065e-06
-3.34216e-06
-3.47789e-06
-3.39734e-06
-3.6443e-06
-3.65165e-06
-3.45158e-06
-3.38099e-06
-3.47097e-06
-3.38346e-06
-3.52372e-06
-3.45444e-06
-3.5578e-06
-3.48569e-06
-3.11642e-06
-3.35391e-06
-3.16627e-06
-3.4811e-06
-3.58149e-06
-3.52368e-06
-3.63177e-06
-3.18477e-06
-3.26697e-06
-3.34816e-06
-3.44331e-06
-3.55102e-06
-3.35601e-06
-3.32837e-06
-3.62025e-06
-3.43307e-06
-3.53095e-06
-3.60474e-06
-3.68662e-06
-3.49518e-06
-3.43259e-06
-3.57594e-06
-3.51666e-06
-3.42043e-06
-3.55294e-06
-3.48232e-06
-3.5724e-06
-3.36844e-06
-3.50044e-06
-3.52173e-06
-3.35056e-06
-3.28991e-06
-3.4958e-06
-3.53988e-06
-3.58978e-06
-3.43941e-06
-3.38121e-06
-3.50304e-06
-3.46327e-06
-3.4237e-06
-3.57537e-06
-3.35642e-06
-3.29287e-06
-3.25707e-06
-3.51921e-06
-3.45626e-06
-3.21184e-06
-3.37111e-06
-3.6173e-06
-3.47049e-06
-3.35734e-06
-3.42585e-06
-3.57491e-06
-3.36991e-06
-3.36261e-06
-3.14827e-06
-3.35643e-06
-3.62161e-06
-3.64545e-06
-3.6842e-06
-3.44031e-06
-3.25027e-06
-3.57627e-06
-3.59035e-06
-3.42554e-06
-3.33783e-06
-3.23833e-06
-3.61707e-06
-3.61708e-06
-3.46481e-06
-3.31153e-06
-3.34387e-06
-3.44637e-06
-3.55295e-06
-3.30403e-06
-3.38417e-06
-3.37582e-06
-3.58e-06
-3.40866e-06
-3.36601e-06
-3.41827e-06
-3.35361e-06
-3.40076e-06
-3.36685e-06
-3.51554e-06
-3.60503e-06
-3.36182e-06
-3.35656e-06
-3.58151e-06
-3.49286e-06
-3.51383e-06
-3.4292e-06
-3.40121e-06
-3.66513e-06
-3.50127e-06
-3.33647e-06
-3.27691e-06
-3.3161e-06
-3.50405e-06
-3.50827e-06
-3.27134e-06
-3.15507e-06
-3.29874e-06
-3.43413e-06
-3.26979e-06
-3.48608e-06
-3.43786e-06
-3.46012e-06
-3.42622e-06
-3.3564e-06
-3.3897e-06
-3.3669e-06
-3.42983e-06
-3.59641e-06
-3.40698e-06
-3.47579e-06
-3.43959e-06
-3.42726e-06
-3.42846e-06
-3.58648e-06
-3.48472e-06
-3.35798e-06
-3.37501e-06
-3.44115e-06
-3.51394e-06
-3.44426e-06
-3.46303e-06
-3.46884e-06
-3.42993e-06
-3.4803e-06
-3.42562e-06
-3.36197e-06
-3.52463e-06
-3.43635e-06
-3.52589e-06
-3.40305e-06
-3.40209e-06
-3.23465e-06
-3.4348e-06
-3.65434e-06
-3.46566e-06
-3.47505e-06
-3.14458e-06
-3.62107e-06
-3.49513e-06
-3.24246e-06
-3.31598e-06
-3.61194e-06
-3.33556e-06
-3.56536e-06
-3.49401e-06
-3.50922e-06
-3.37622e-06
-3.23213e-06
-3.25087e-06
-3.39037e-06
-3.5054e-06
-3.23358e-06
-3.43549e-06
-3.45799e-06
-3.22683e-06
-3.4048e-06
-3.61955e-06
-3.53391e-06
-3.54761e-06
-3.44225e-06
-3.46481e-06
-3.53337e-06
-3.48023e-06
-3.53609e-06
-3.54569e-06
-3.34837e-06
-3.35573e-06
-3.28894e-06
-3.46293e-06
-3.51179e-06
-3.43023e-06
-3.47548e-06
-3.43736e-06
-3.33882e-06
-3.39013e-06
-3.56941e-06
-3.34326e-06
-3.27327e-06
-3.54266e-06
-3.51917e-06
-3.57789e-06
-3.43099e-06
-3.40481e-06
-3.46147e-06
-3.51064e-06
-3.44593e-06
-3.5964e-06
-3.3204e-06
-3.26606e-06
-3.62508e-06
-3.56392e-06
-3.5341e-06
-3.62457e-06
-3.29714e-06
-3.40363e-06
-3.62293e-06
-3.35229e-06
-3.40014e-06
-3.41295e-06
-3.5268e-06
-3.4611e-06
-3.54005e-06
-3.53817e-06
-3.50547e-06
-3.42419e-06
-3.54386e-06
-3.57905e-06
-3.47473e-06
-3.61381e-06
-3.50893e-06
-3.51375e-06
-3.44108e-06
-3.43358e-06
-3.60045e-06
-3.5657e-06
-3.60089e-06
-3.48846e-06
-3.3194e-06
-3.50807e-06
-3.5425e-06
-3.37066e-06
-3.32247e-06