# vtk DataFile Version 2.0
3D Surface
ASCII
DATASET UNSTRUCTURED_GRID
POINTS 19807 float
-1.2e-05 -1.225e-05 -1.10036e-05 
-1.2e-05 -1.21694e-05 -1.1e-05 
-1.20755e-05 -1.225e-05 -1.1e-05 
-1.175e-05 -1.225e-05 -1.10102e-05 
-1.175e-05 -1.21038e-05 -1.1e-05 
-1.15017e-05 -1.225e-05 -1.1e-05 
-1.125e-05 -1.2e-05 -1.10013e-05 
-1.14968e-05 -1.225e-05 -1.1e-05 
-1.125e-05 -1.225e-05 -1.10053e-05 
-1.12873e-05 -1.2e-05 -1.1e-05 
-1.1047e-05 -1.2e-05 -1.1e-05 
-1.1e-05 -1.225e-05 -1.1008e-05 
-1.1e-05 -1.2009e-05 -1.1e-05 
-1.075e-05 -1.225e-05 -1.10133e-05 
-1.075e-05 -1.20161e-05 -1.1e-05 
-1.05136e-05 -1.225e-05 -1.1e-05 
-1.025e-05 -1.2e-05 -1.10027e-05 
-1.02647e-05 -1.225e-05 -1.1e-05 
-1.025e-05 -1.225e-05 -1.1e-05 
-1.03998e-05 -1.2e-05 -1.1e-05 
-1.00537e-05 -1.2e-05 -1.1e-05 
-1e-05 -1.225e-05 -1.10002e-05 
-1e-05 -1.21978e-05 -1.1e-05 
-9.99517e-06 -1.225e-05 -1.1e-05 
-9e-06 -1.2e-05 -1.10043e-05 
-9.14508e-06 -1.2e-05 -1.1e-05 
-9e-06 -1.21392e-05 -1.1e-05 
-8.75e-06 -1.21074e-05 -1.1e-05 
-8.75e-06 -1.2e-05 -1.10039e-05 
-8.5e-06 -1.22351e-05 -1.1e-05 
-8.5e-06 -1.2e-05 -1.1002e-05 
-8.48532e-06 -1.225e-05 -1.1e-05 
-8.25e-06 -1.225e-05 -1.1002e-05 
-8.25e-06 -1.21853e-05 -1.1e-05 
-8.43602e-06 -1.2e-05 -1.1e-05 
-8e-06 -1.2e-05 -1.10054e-05 
-8.12116e-06 -1.2e-05 -1.1e-05 
-8e-06 -1.225e-05 -1.10019e-05 
-7.75e-06 -1.225e-05 -1.10123e-05 
-7.75e-06 -1.2e-05 -1.1005e-05 
-7.5888e-06 -1.2e-05 -1.1e-05 
-7.57903e-06 -1.225e-05 -1.1e-05 
-7e-06 -1.2e-05 -1.10127e-05 
-7.04929e-06 -1.225e-05 -1.1e-05 
-7e-06 -1.225e-05 -1.10029e-05 
-7.17978e-06 -1.2e-05 -1.1e-05 
-6.75e-06 -1.21141e-05 -1.1e-05 
-6.90951e-06 -1.225e-05 -1.1e-05 
-6.75e-06 -1.2e-05 -1.10043e-05 
-6.60146e-06 -1.2e-05 -1.1e-05 
-6.25e-06 -1.2e-05 -1.10068e-05 
-6.42376e-06 -1.2e-05 -1.1e-05 
-6.25e-06 -1.21334e-05 -1.1e-05 
-6e-06 -1.20534e-05 -1.1e-05 
-6e-06 -1.2e-05 -1.10028e-05 
-5.75e-06 -1.20814e-05 -1.1e-05 
-5.75e-06 -1.2e-05 -1.10031e-05 
-5.66947e-06 -1.225e-05 -1.1e-05 
-5.5e-06 -1.225e-05 -1.10136e-05 
-5.5e-06 -1.2e-05 -1.10104e-05 
-5.25e-06 -1.225e-05 -1.10042e-05 
-5.25e-06 -1.2e-05 -1.10204e-05 
-5e-06 -1.21842e-05 -1.1e-05 
-5.09376e-06 -1.225e-05 -1.1e-05 
-5e-06 -1.2e-05 -1.1007e-05 
-4.9351e-06 -1.225e-05 -1.1e-05 
-4.75e-06 -1.225e-05 -1.10071e-05 
-4.75e-06 -1.2e-05 -1.10061e-05 
-4.5e-06 -1.225e-05 -1.10165e-05 
-4.5e-06 -1.2e-05 -1.10077e-05 
-4.31792e-06 -1.2e-05 -1.1e-05 
-4.25e-06 -1.225e-05 -1.10072e-05 
-4.25e-06 -1.20716e-05 -1.1e-05 
-4e-06 -1.2e-05 -1.10013e-05 
-4.07721e-06 -1.2e-05 -1.1e-05 
-4e-06 -1.225e-05 -1.10067e-05 
-3.96326e-06 -1.2e-05 -1.1e-05 
-3.85151e-06 -1.225e-05 -1.1e-05 
-3.25e-06 -1.2e-05 -1.10085e-05 
-3.38325e-06 -1.2e-05 -1.1e-05 
-3.25e-06 -1.21436e-05 -1.1e-05 
-3.02847e-06 -1.225e-05 -1.1e-05 
-3e-06 -1.225e-05 -1.10008e-05 
-3e-06 -1.2e-05 -1.10061e-05 
-2.75e-06 -1.225e-05 -1.10132e-05 
-2.75e-06 -1.2e-05 -1.10022e-05 
-2.5e-06 -1.22036e-05 -1.1e-05 
-2.53044e-06 -1.225e-05 -1.1e-05 
-2.5e-06 -1.2e-05 -1.10081e-05 
-2.40182e-06 -1.225e-05 -1.1e-05 
-2.25e-06 -1.225e-05 -1.10028e-05 
-2.25e-06 -1.2e-05 -1.10051e-05 
-2e-06 -1.225e-05 -1.10125e-05 
-2e-06 -1.2e-05 -1.10125e-05 
-1.75e-06 -1.225e-05 -1.10044e-05 
-1.75e-06 -1.2e-05 -1.10042e-05 
-1.5e-06 -1.225e-05 -1.10011e-05 
-1.5e-06 -1.2e-05 -1.1007e-05 
-1.25e-06 -1.22209e-05 -1.1e-05 
-1.36442e-06 -1.225e-05 -1.1e-05 
-1.25e-06 -1.2e-05 -1.10073e-05 
-1.22578e-06 -1.225e-05 -1.1e-05 
-1e-06 -1.225e-05 -1.1009e-05 
-1e-06 -1.2e-05 -1.10027e-05 
-7.5e-07 -1.225e-05 -1.10023e-05 
-7.5e-07 -1.2e-05 -1.10023e-05 
-5e-07 -1.225e-05 -1.10102e-05 
-5e-07 -1.2e-05 -1.10032e-05 
-2.5e-07 -1.225e-05 -1.10013e-05 
-2.5e-07 -1.2e-05 -1.10142e-05 
0 -1.21365e-05 -1.1e-05 
-1.59947e-07 -1.225e-05 -1.1e-05 
0 -1.2e-05 -1.10028e-05 
1.51132e-07 -1.2e-05 -1.1e-05 
7.5e-07 -1.225e-05 -1.1002e-05 
7.5e-07 -1.22e-05 -1.1e-05 
6.8088e-07 -1.225e-05 -1.1e-05 
9.00999e-07 -1.225e-05 -1.1e-05 
1.25e-06 -1.2e-05 -1.10054e-05 
1.12826e-06 -1.225e-05 -1.1e-05 
1.25e-06 -1.225e-05 -1.10013e-05 
1.13833e-06 -1.2e-05 -1.1e-05 
1.5e-06 -1.225e-05 -1.10101e-05 
1.5e-06 -1.2e-05 -1.10003e-05 
1.75e-06 -1.20097e-05 -1.1e-05 
1.64021e-06 -1.225e-05 -1.1e-05 
1.75e-06 -1.2e-05 -1.10003e-05 
1.92296e-06 -1.225e-05 -1.1e-05 
2e-06 -1.225e-05 -1.10035e-05 
2e-06 -1.2e-05 -1.10074e-05 
2.25e-06 -1.225e-05 -1.10098e-05 
2.25e-06 -1.2e-05 -1.10078e-05 
2.5e-06 -1.225e-05 -1.10056e-05 
2.5e-06 -1.2e-05 -1.10051e-05 
2.69111e-06 -1.2e-05 -1.1e-05 
2.67811e-06 -1.225e-05 -1.1e-05 
3.5e-06 -1.2e-05 -1.10031e-05 
3.42724e-06 -1.225e-05 -1.1e-05 
3.5e-06 -1.225e-05 -1.10016e-05 
3.38577e-06 -1.2e-05 -1.1e-05 
3.73975e-06 -1.2e-05 -1.1e-05 
3.75e-06 -1.225e-05 -1.10129e-05 
3.75e-06 -1.20025e-05 -1.1e-05 
4e-06 -1.2e-05 -1.10024e-05 
3.76301e-06 -1.2e-05 -1.1e-05 
4e-06 -1.225e-05 -1.10007e-05 
4.25e-06 -1.21711e-05 -1.1e-05 
4.02881e-06 -1.225e-05 -1.1e-05 
4.25e-06 -1.2e-05 -1.10116e-05 
4.44011e-06 -1.2e-05 -1.1e-05 
4.75e-06 -1.225e-05 -1.1006e-05 
4.75e-06 -1.2005e-05 -1.1e-05 
4.64228e-06 -1.225e-05 -1.1e-05 
5e-06 -1.2e-05 -1.10043e-05 
4.75683e-06 -1.2e-05 -1.1e-05 
5e-06 -1.225e-05 -1.10059e-05 
5.25e-06 -1.225e-05 -1.10158e-05 
5.25e-06 -1.2e-05 -1.10033e-05 
5.5e-06 -1.225e-05 -1.10053e-05 
5.5e-06 -1.2e-05 -1.10113e-05 
5.73817e-06 -1.2e-05 -1.1e-05 
5.60828e-06 -1.225e-05 -1.1e-05 
6e-06 -1.225e-05 -1.10034e-05 
6e-06 -1.21615e-05 -1.1e-05 
5.91798e-06 -1.225e-05 -1.1e-05 
6.25e-06 -1.2e-05 -1.10039e-05 
6.15346e-06 -1.2e-05 -1.1e-05 
6.25e-06 -1.225e-05 -1.10103e-05 
6.5e-06 -1.225e-05 -1.10066e-05 
6.5e-06 -1.2e-05 -1.1009e-05 
6.75e-06 -1.2149e-05 -1.1e-05 
6.60863e-06 -1.225e-05 -1.1e-05 
6.75e-06 -1.2e-05 -1.10126e-05 
6.95813e-06 -1.2e-05 -1.1e-05 
7.25e-06 -1.2e-05 -1.1002e-05 
7.14027e-06 -1.2e-05 -1.1e-05 
7.25e-06 -1.20985e-05 -1.1e-05 
7.46214e-06 -1.225e-05 -1.1e-05 
7.5e-06 -1.225e-05 -1.10005e-05 
7.5e-06 -1.2e-05 -1.10035e-05 
7.75e-06 -1.225e-05 -1.10105e-05 
7.75e-06 -1.2e-05 -1.10001e-05 
7.75403e-06 -1.2e-05 -1.1e-05 
8e-06 -1.225e-05 -1.10036e-05 
8e-06 -1.21236e-05 -1.1e-05 
8.25e-06 -1.2e-05 -1.10015e-05 
8.17738e-06 -1.2e-05 -1.1e-05 
8.25e-06 -1.225e-05 -1.10048e-05 
8.27793e-06 -1.2e-05 -1.1e-05 
8.5e-06 -1.225e-05 -1.10037e-05 
8.5e-06 -1.21895e-05 -1.1e-05 
8.75e-06 -1.225e-05 -1.10085e-05 
8.75e-06 -1.20705e-05 -1.1e-05 
9e-06 -1.2e-05 -1.10037e-05 
8.86816e-06 -1.2e-05 -1.1e-05 
9e-06 -1.225e-05 -1.10179e-05 
9.25e-06 -1.225e-05 -1.10025e-05 
9.25e-06 -1.2e-05 -1.1004e-05 
9.5e-06 -1.225e-05 -1.10053e-05 
9.5e-06 -1.2e-05 -1.10012e-05 
9.75e-06 -1.225e-05 -1.10111e-05 
9.75e-06 -1.2e-05 -1.10025e-05 
9.81785e-06 -1.2e-05 -1.1e-05 
9.93932e-06 -1.225e-05 -1.1e-05 
1.025e-05 -1.225e-05 -1.10004e-05 
1.025e-05 -1.2204e-05 -1.1e-05 
1.02261e-05 -1.225e-05 -1.1e-05 
1.05e-05 -1.225e-05 -1.1002e-05 
1.05e-05 -1.22168e-05 -1.1e-05 
1.075e-05 -1.225e-05 -1.10023e-05 
1.075e-05 -1.21591e-05 -1.1e-05 
1.1e-05 -1.2e-05 -1.10057e-05 
1.08544e-05 -1.2e-05 -1.1e-05 
1.1e-05 -1.225e-05 -1.1001e-05 
1.125e-05 -1.21437e-05 -1.1e-05 
1.10738e-05 -1.225e-05 -1.1e-05 
1.125e-05 -1.2e-05 -1.10032e-05 
1.12786e-05 -1.225e-05 -1.1e-05 
1.15e-05 -1.225e-05 -1.10184e-05 
1.15e-05 -1.2e-05 -1.10032e-05 
1.175e-05 -1.225e-05 -1.10138e-05 
1.175e-05 -1.2e-05 -1.10061e-05 
1.18568e-05 -1.2e-05 -1.1e-05 
1.19326e-05 -1.225e-05 -1.1e-05 
-1.125e-05 -1.1965e-05 -1.1e-05 
-1.025e-05 -1.19448e-05 -1.1e-05 
-9.75e-06 -1.175e-05 -1.10038e-05 
-9.88678e-06 -1.175e-05 -1.1e-05 
-9.75e-06 -1.18383e-05 -1.1e-05 
-9.5e-06 -1.17653e-05 -1.1e-05 
-9.5e-06 -1.175e-05 -1.10004e-05 
-9.25e-06 -1.18307e-05 -1.1e-05 
-9.25e-06 -1.175e-05 -1.10015e-05 
-9e-06 -1.175e-05 -1.10016e-05 
-8.9164e-06 -1.175e-05 -1.1e-05 
-8.75e-06 -1.18632e-05 -1.1e-05 
-8.5e-06 -1.19105e-05 -1.1e-05 
-8e-06 -1.175e-05 -1.10025e-05 
-8.10132e-06 -1.175e-05 -1.1e-05 
-7.75e-06 -1.175e-05 -1.1008e-05 
-7.5e-06 -1.19487e-05 -1.1e-05 
-7.5e-06 -1.175e-05 -1.10108e-05 
-7.25e-06 -1.19464e-05 -1.1e-05 
-7.25e-06 -1.175e-05 -1.10183e-05 
-7e-06 -1.175e-05 -1.10039e-05 
-6.75e-06 -1.175e-05 -1.10028e-05 
-6.58898e-06 -1.175e-05 -1.1e-05 
-6.25e-06 -1.175e-05 -1.10206e-05 
-6.48237e-06 -1.175e-05 -1.1e-05 
-6e-06 -1.175e-05 -1.10019e-05 
-5.9269e-06 -1.175e-05 -1.1e-05 
-5.75e-06 -1.18997e-05 -1.1e-05 
-5.5e-06 -1.17814e-05 -1.1e-05 
-5.25e-06 -1.175e-05 -1.10106e-05 
-5.46916e-06 -1.175e-05 -1.1e-05 
-5.00861e-06 -1.175e-05 -1.1e-05 
-5e-06 -1.17628e-05 -1.1e-05 
-4.75e-06 -1.175e-05 -1.10167e-05 
-4.99446e-06 -1.175e-05 -1.1e-05 
-4.56216e-06 -1.175e-05 -1.1e-05 
-4.5e-06 -1.18541e-05 -1.1e-05 
-4e-06 -1.1935e-05 -1.1e-05 
-3.5e-06 -1.175e-05 -1.10005e-05 
-3.54061e-06 -1.175e-05 -1.1e-05 
-3.5e-06 -1.17642e-05 -1.1e-05 
-3.25e-06 -1.175e-05 -1.1009e-05 
-3e-06 -1.175e-05 -1.10018e-05 
-2.94525e-06 -1.175e-05 -1.1e-05 
-2.75e-06 -1.19365e-05 -1.1e-05 
-2.5e-06 -1.18965e-05 -1.1e-05 
-2.25e-06 -1.1842e-05 -1.1e-05 
-2e-06 -1.175e-05 -1.10135e-05 
-2.20509e-06 -1.175e-05 -1.1e-05 
-1.75e-06 -1.175e-05 -1.10049e-05 
-1.63449e-06 -1.175e-05 -1.1e-05 
-1.5e-06 -1.18618e-05 -1.1e-05 
-1.25e-06 -1.175e-05 -1.10056e-05 
-1.37377e-06 -1.175e-05 -1.1e-05 
-1e-06 -1.175e-05 -1.10007e-05 
-9.32917e-07 -1.175e-05 -1.1e-05 
-7.5e-07 -1.18638e-05 -1.1e-05 
-5e-07 -1.19066e-05 -1.1e-05 
-2.5e-07 -1.175e-05 -1.10122e-05 
-4.22851e-07 -1.175e-05 -1.1e-05 
0 -1.175e-05 -1.1011e-05 
2.5e-07 -1.19708e-05 -1.1e-05 
2.5e-07 -1.175e-05 -1.10139e-05 
4.03852e-07 -1.175e-05 -1.1e-05 
1e-06 -1.175e-05 -1.10037e-05 
9.03384e-07 -1.175e-05 -1.1e-05 
1e-06 -1.18395e-05 -1.1e-05 
1.25e-06 -1.18883e-05 -1.1e-05 
1.08956e-06 -1.175e-05 -1.1e-05 
1.5e-06 -1.19755e-05 -1.1e-05 
1.75e-06 -1.175e-05 -1.10057e-05 
1.58421e-06 -1.175e-05 -1.1e-05 
2e-06 -1.175e-05 -1.10038e-05 
2.15298e-06 -1.175e-05 -1.1e-05 
2.25e-06 -1.18092e-05 -1.1e-05 
2.5e-06 -1.17627e-05 -1.1e-05 
3.25e-06 -1.175e-05 -1.10079e-05 
3.06775e-06 -1.175e-05 -1.1e-05 
3.25e-06 -1.19211e-05 -1.1e-05 
3.5e-06 -1.175e-05 -1.10099e-05 
3.66774e-06 -1.175e-05 -1.1e-05 
[...]
POINT_DATA 19807
SCALARS Velocities float 1
LOOKUP_TABLE default
-3.47471e-06
-3.47471e-06
-3.47471e-06
-3.40477e-06
-3.29222e-06
-3.45765e-06
-3.44205e-06
-3.45765e-06
-3.40799e-06
-3.44205e-06
-3.36045e-06
-3.3217e-06
-3.36045e-06
-3.57311e-06
-3.42727e-06
-3.54141e-06
-3.42301e-06
-3.32733e-06
-3.32733e-06
-3.55093e-06
-3.4061e-06
-3.22265e-06
-3.22265e-06
-3.22265e-06
-3.45442e-06
-3.49253e-06
-3.61468e-06
-3.29673e-06
-3.29673e-06
-3.44203e-06
-3.38644e-06
-3.44203e-06
-3.50419e-06
-3.50419e-06
-3.38644e-06
-3.561e-06
-3.561e-06
-3.47567e-06
-3.52431e-06
-3.53112e-06
-3.5113e-06
-3.52102e-06
-3.29512e-06
-3.40345e-06
-3.40345e-06
-3.33447e-06
-3.37322e-06
-3.40345e-06
-3.37322e-06
-3.52223e-06
-3.50213e-06
-3.52223e-06
-3.36133e-06
-3.29005e-06
-3.29005e-06
-3.42149e-06
-3.42149e-06
-3.31065e-06
-3.63201e-06
-3.64578e-06
-3.50493e-06
-3.71568e-06
-3.4764e-06
-3.4764e-06
-3.49983e-06
-3.4764e-06
-3.35039e-06
-3.58928e-06
-3.29876e-06
-3.46084e-06
-3.40486e-06
-3.48001e-06
-3.40486e-06
-3.4339e-06
-3.4339e-06
-3.56785e-06
-3.4339e-06
-3.61777e-06
-3.29359e-06
-3.43701e-06
-3.39247e-06
-3.44793e-06
-3.44793e-06
-3.43007e-06
-3.442e-06
-3.28621e-06
-3.52237e-06
-3.52237e-06
-3.21502e-06
-3.52237e-06
-3.47983e-06
-3.42498e-06
-3.35052e-06
-3.39317e-06
-3.56549e-06
-3.43114e-06
-3.58593e-06
-3.7053e-06
-3.52745e-06
-3.52745e-06
-3.80958e-06
-3.52745e-06
-3.37717e-06
-3.71127e-06
-3.50196e-06
-3.41828e-06
-3.48612e-06
-3.51168e-06
-3.40682e-06
-3.58676e-06
-3.51171e-06
-3.40682e-06
-3.33219e-06
-3.3742e-06
-3.48295e-06
-3.48295e-06
-3.48295e-06
-3.44836e-06
-3.37683e-06
-3.37781e-06
-3.37781e-06
-3.37683e-06
-3.55017e-06
-3.58685e-06
-3.22436e-06
-3.41151e-06
-3.22436e-06
-3.45186e-06
-3.45186e-06
-3.45517e-06
-3.82558e-06
-3.60642e-06
-3.3868e-06
-3.41361e-06
-3.2311e-06
-3.52048e-06
-3.53498e-06
-3.49079e-06
-3.49079e-06
-3.53498e-06
-3.39134e-06
-3.5258e-06
-3.39134e-06
-3.45059e-06
-3.39134e-06
-3.44471e-06
-3.55411e-06
-3.44471e-06
-3.34097e-06
-3.18821e-06
-3.64666e-06
-3.39602e-06
-3.64666e-06
-3.35782e-06
-3.39602e-06
-3.40683e-06
-3.47932e-06
-3.5577e-06
-3.5417e-06
-3.43942e-06
-3.51986e-06
-3.5417e-06
-3.36381e-06
-3.36381e-06
-3.36381e-06
-3.54892e-06
-3.54892e-06
-3.35357e-06
-3.4642e-06
-3.34905e-06
-3.56331e-06
-3.4642e-06
-3.39797e-06
-3.47343e-06
-3.49734e-06
-3.49734e-06
-3.49734e-06
-3.51606e-06
-3.51606e-06
-3.44424e-06
-3.46117e-06
-3.44945e-06
-3.44945e-06
-3.52762e-06
-3.46152e-06
-3.28683e-06
-3.28683e-06
-3.61893e-06
-3.28683e-06
-3.71219e-06
-3.71219e-06
-3.61229e-06
-3.68106e-06
-3.42539e-06
-3.68106e-06
-3.62374e-06
-3.56303e-06
-3.60763e-06
-3.3498e-06
-3.61635e-06
-3.5555e-06
-3.54899e-06
-3.54899e-06
-3.50354e-06
-3.55233e-06
-3.55233e-06
-3.55233e-06
-3.35201e-06
-3.35201e-06
-3.51875e-06
-3.51875e-06
-3.472e-06
-3.58494e-06
-3.39647e-06
-3.62118e-06
-3.39647e-06
-3.50355e-06
-3.62118e-06
-3.64822e-06
-3.35784e-06
-3.64755e-06
-3.49494e-06
-3.49494e-06
-3.57648e-06
-3.44205e-06
-3.42301e-06
-3.62625e-06
-3.48985e-06
-3.62625e-06
-3.38821e-06
-3.38821e-06
-3.33578e-06
-3.33578e-06
-3.5358e-06
-3.5358e-06
-3.35985e-06
-3.38644e-06
-3.53901e-06
-3.53901e-06
-3.50683e-06
-3.5113e-06
-3.4618e-06
-3.33447e-06
-3.49267e-06
-3.33109e-06
-3.45653e-06
-3.36161e-06
-3.41824e-06
-3.36161e-06
-3.51019e-06
-3.51019e-06
-3.42149e-06
-3.37074e-06
-3.50997e-06
-3.37074e-06
-3.48338e-06
-3.48338e-06
-3.42188e-06
-3.48338e-06
-3.42084e-06
-3.42084e-06
-3.4339e-06
-3.68674e-06
-3.68674e-06
-3.68674e-06
-3.48936e-06
-3.27649e-06
-3.27649e-06
-3.28621e-06
-3.21502e-06
-3.47751e-06
-3.43666e-06
-3.47751e-06
-3.21285e-06
-3.21285e-06
-3.44621e-06
-3.54017e-06
-3.54017e-06
-3.56167e-06
-3.56167e-06
-3.24868e-06
-3.51168e-06
-3.60336e-06
-3.50923e-06
-3.4433e-06
-3.3742e-06
-3.56617e-06
-3.65692e-06
-3.58392e-06
-3.58392e-06
-3.58392e-06
-3.37683e-06
-3.58392e-06
-3.58685e-06
-3.49511e-06
-3.50843e-06
-3.59267e-06
-3.35264e-06
-3.35264e-06
-3.46456e-06
-3.23432e-06
-3.50074e-06
-3.53704e-06
-3.34878e-06
-3.40659e-06
-3.45059e-06
-3.30714e-06
-3.38875e-06
-3.35208e-06
-3.29412e-06
-3.35208e-06
-3.39602e-06
-3.41554e-06
-3.47886e-06
-3.31665e-06
-3.31665e-06
-3.51986e-06
-3.26925e-06
-3.31665e-06
-3.48243e-06
-3.45745e-06
-3.65449e-06
-3.40121e-06
-3.24445e-06
-3.40598e-06
-3.87197e-06
-3.40598e-06
-3.4234e-06
-3.37504e-06
-3.46152e-06
-3.49985e-06
-3.43996e-06
-3.53499e-06
-3.53499e-06
-3.4605e-06
-3.30638e-06
-3.4605e-06
-3.2621e-06
-3.5586e-06
-3.5586e-06
-3.36668e-06
-3.5586e-06
-3.43003e-06
-3.43003e-06
-3.59654e-06
-3.43028e-06
-3.46565e-06
-3.35685e-06
-3.46565e-06
-3.58494e-06
-3.47517e-06
-3.55151e-06
-3.33995e-06
-3.33995e-06
-3.36743e-06
-3.41775e-06
-3.31616e-06
-3.51715e-06
-3.41775e-06
-3.69527e-06
-3.69527e-06
-3.69527e-06
-3.2974e-06
-3.32462e-06
-3.36008e-06
-3.25347e-06
-3.44776e-06
-3.50988e-06
-3.50988e-06
-3.4675e-06
-3.65421e-06
-3.45652e-06
-3.65421e-06
-3.33092e-06
-3.33578e-06
-3.5358e-06
-3.35985e-06
-3.66247e-06
-3.43471e-06
-3.33331e-06
-3.50753e-06
-3.50753e-06
-3.55754e-06
-3.54107e-06
-3.53124e-06
-3.45686e-06
-3.45686e-06
-3.65448e-06
-3.61017e-06
-3.51019e-06
-3.56449e-06
-3.56449e-06
-3.80129e-06
-3.56449e-06
-3.43334e-06
-3.66714e-06
-3.66714e-06
-3.56095e-06
-3.56095e-06
-3.62842e-06
-3.43903e-06
-3.40213e-06
-3.40213e-06
-3.57494e-06
-3.49934e-06
-3.48026e-06
-3.3571e-06
-3.3571e-06
-3.11508e-06
-3.3571e-06
-3.36939e-06
-3.36939e-06
-3.43112e-06
-3.29392e-06
-3.43112e-06
-3.47751e-06
-3.45239e-06
-3.31897e-06
-3.6185e-06
-3.37135e-06
-3.25137e-06
-3.25137e-06
-3.25137e-06
-3.52307e-06
-3.16745e-06
-3.50923e-06
-3.61385e-06
-3.43658e-06
-3.43658e-06
-3.48678e-06
-3.48678e-06
-3.48678e-06
-3.43394e-06
-3.45294e-06
-3.43394e-06
-3.54338e-06
-3.32995e-06
-3.58149e-06
-3.58149e-06
-3.27042e-06
-3.35264e-06
-3.45351e-06
-3.46456e-06
-3.5786e-06
-3.32028e-06
-3.46324e-06
-3.46324e-06
-3.50074e-06
-3.50926e-06
-3.35913e-06
-3.31382e-06
-3.45026e-06
-3.46141e-06
-3.35208e-06
-3.32598e-06
-3.3381e-06
-3.50044e-06
-3.57217e-06
-3.57217e-06
-3.17706e-06
-3.17706e-06
-3.17706e-06
-3.34279e-06
-3.43747e-06
-3.36083e-06
-3.36083e-06
-3.36727e-06
-3.38443e-06
-3.36727e-06
-3.40598e-06
-3.26812e-06
-3.58363e-06
-3.4301e-06
-3.38207e-06
-3.38207e-06
-3.58526e-06
-3.44655e-06
-3.48836e-06
-3.44655e-06
-3.2695e-06
-3.26913e-06
-3.2695e-06
-3.52609e-06
-3.5586e-06
-3.61535e-06
-3.60444e-06
-3.41186e-06
-3.41186e-06
-3.49129e-06
-3.45901e-06
-3.6144e-06
-3.34448e-06
-3.6351e-06
-3.6351e-06
-3.33995e-06
-3.41775e-06
-3.41775e-06
-3.41775e-06
-3.65149e-06
-3.29473e-06
-3.49282e-06
-3.41763e-06
-3.35608e-06
-3.52265e-06
-3.5408e-06
-3.52265e-06
-3.5408e-06
-3.43866e-06
-3.43304e-06
-3.5639e-06
-3.64056e-06
-3.64056e-06
-3.44755e-06
-3.64056e-06
-3.53824e-06
-3.52901e-06
-3.48977e-06
-3.35912e-06
-3.48977e-06
-3.35912e-06
-3.48375e-06
-3.59928e-06
-3.61864e-06
-3.50863e-06
-3.51281e-06
-3.51281e-06
-3.65448e-06
-3.49314e-06
-3.34821e-06
-3.52172e-06
-3.45424e-06
-3.42097e-06
-3.42097e-06
-3.45705e-06
-3.45705e-06
-3.45705e-06
-3.66714e-06
-3.46183e-06
-3.42903e-06
-3.46183e-06
-3.49091e-06
-3.48511e-06
-3.48689e-06
-3.48689e-06
-3.3571e-06
-3.51208e-06
-3.48689e-06
-3.66827e-06
-3.69766e-06
-3.43112e-06
-3.59839e-06
-3.38938e-06
-3.38938e-06
-3.43789e-06
-3.38938e-06
-3.16469e-06
-3.6185e-06
-3.46723e-06
-3.46723e-06
-3.3944e-06
-3.3944e-06
-3.37935e-06
-3.64426e-06
-3.37935e-06
-3.59103e-06
-3.55327e-06
-3.32555e-06
-3.55327e-06
-3.31017e-06
-3.49311e-06
-3.31017e-06
-3.33373e-06
-3.32343e-06
-3.32343e-06
-3.4666e-06
-3.2897e-06
-3.46672e-06
-3.32275e-06
-3.25577e-06
-3.40589e-06
-3.37686e-06
-3.53121e-06
-3.37686e-06
-3.43738e-06
-3.435e-06
-3.31382e-06
-3.35311e-06
-3.46141e-06
-3.48455e-06
-3.73012e-06
-3.73012e-06
-3.32598e-06
-3.63601e-06
-3.49201e-06
-3.4651e-06
-3.68732e-06
-3.68732e-06
-3.44608e-06
-3.30885e-06
-3.38217e-06
-3.45781e-06
-3.36727e-06
-3.36766e-06
-3.53702e-06
-3.18762e-06
-3.51586e-06
-3.40172e-06
-3.40172e-06
-3.32889e-06
-3.32889e-06
-3.58526e-06
-3.31307e-06
-3.44655e-06
-3.31213e-06
-3.36499e-06
-3.36499e-06
-3.41784e-06
-3.41784e-06
-3.7169e-06
-3.43515e-06
-3.43816e-06
-3.43816e-06
-3.45607e-06
-3.34448e-06
-3.37532e-06
-3.37532e-06
-3.37532e-06
-3.37532e-06
-3.53746e-06
-3.34553e-06
-3.57905e-06
-3.33517e-06
-3.29473e-06
-3.29473e-06
-3.29473e-06
-3.50156e-06
-3.50156e-06
-3.52936e-06
-3.55513e-06
-3.34346e-06
-3.34346e-06
-3.34346e-06
-3.29507e-06
-3.64056e-06
-3.38546e-06
-3.38546e-06
-3.38546e-06
-3.62022e-06
-3.62022e-06
-3.62022e-06
-3.53158e-06
-3.3832e-06
-3.73993e-06
-3.35912e-06
-3.40213e-06
-3.5102e-06
-3.40213e-06
-3.24619e-06
-3.56894e-06
-3.53155e-06
-3.51281e-06
-3.42697e-06
-3.42697e-06
-3.36148e-06
-3.45424e-06
-3.32279e-06
-3.29976e-06
-3.34203e-06
-3.61687e-06
-3.61687e-06
-3.45705e-06
-3.37627e-06
-3.37627e-06
-3.37627e-06
-3.37627e-06
-3.43134e-06
-3.43134e-06
-3.43134e-06
-3.42168e-06
-3.3814e-06
-3.0898e-06
-3.0898e-06
-3.47981e-06
-3.63324e-06
-3.47981e-06
-3.5554e-06
-3.5554e-06
-3.47914e-06
-3.38938e-06
-3.50266e-06
-3.50266e-06
-3.36752e-06
-3.20042e-06
-3.49885e-06
-3.46723e-06
-3.33907e-06
-3.33907e-06
-3.49885e-06
-3.41357e-06
-3.41357e-06
-3.42819e-06
-3.46756e-06
-3.39039e-06
-3.39039e-06
-3.55327e-06
-3.60903e-06
-3.39039e-06
-3.38136e-06
-3.31017e-06
-3.44181e-06
-3.30207e-06
-3.31984e-06
-3.31984e-06
-3.33163e-06
-3.36648e-06
-3.67855e-06
-3.36648e-06
-3.67321e-06
-3.55374e-06
-3.41576e-06
-3.37686e-06
-3.50095e-06
-3.32451e-06
-3.32586e-06
-3.32586e-06
-3.58022e-06
-3.40579e-06
-3.58022e-06
-3.27089e-06
-3.73012e-06
-3.49768e-06
-3.54829e-06
-3.64678e-06
-3.64678e-06
-3.34161e-06
-3.46e-06
-3.46e-06
-3.50865e-06
-3.46e-06
-3.60291e-06
-3.43288e-06
-3.44921e-06
-3.37261e-06
-3.37261e-06
-3.54375e-06
-3.37261e-06
-3.26215e-06
-3.39109e-06
-3.39109e-06
-3.48836e-06
-3.48836e-06
-3.50115e-06
-3.42256e-06
-3.57619e-06
-3.46412e-06
-3.41784e-06
-3.7169e-06
-3.43515e-06
-3.43816e-06
-3.6003e-06
-3.6003e-06
-3.6003e-06
-3.6003e-06
-3.45218e-06
-3.45218e-06
-3.45218e-06
-3.37628e-06
-3.50245e-06
-3.50245e-06
-3.49049e-06
-3.49049e-06
-3.29473e-06
-3.50665e-06
-3.50665e-06
-3.52869e-06
-3.55513e-06
-3.46886e-06
-3.57799e-06
-3.42849e-06
-3.45549e-06
-3.45549e-06
-3.41531e-06
-3.45549e-06
-3.31175e-06
-3.31175e-06
-3.31175e-06
-3.6341e-06
-3.6341e-06
-3.515e-06
-3.515e-06
-3.33449e-06
-3.3701e-06
-3.3832e-06
-3.31783e-06
-3.26269e-06
-3.26269e-06
-3.39207e-06
-3.66276e-06
-3.29445e-06
-3.60638e-06
-3.47779e-06
-3.55534e-06
-3.55534e-06
-3.52057e-06
-3.53224e-06
-3.53224e-06
-3.32442e-06
-3.53224e-06
-3.43614e-06
-3.41183e-06
-3.41183e-06
-3.41183e-06
-3.39625e-06
-3.56286e-06
-3.37164e-06
-3.47849e-06
-3.38587e-06
-3.20461e-06
-3.35224e-06
-3.37909e-06
-3.26058e-06
-3.37909e-06
-3.47981e-06
-3.47188e-06
-3.56524e-06
-3.47914e-06
-3.57015e-06
-3.39529e-06
-3.18443e-06
-3.18443e-06
-3.21102e-06
-3.63277e-06
-3.71138e-06
-3.41357e-06
-3.42473e-06
-3.50515e-06
-3.40231e-06
-3.50515e-06
-3.39039e-06
-3.51811e-06
-3.5061e-06
-3.52734e-06
-3.50403e-06
-3.44181e-06
-3.56032e-06
-3.50403e-06
-3.5716e-06
-3.31984e-06
-3.31225e-06
-3.50739e-06
-3.31225e-06
-3.73043e-06
-3.61769e-06
-3.70043e-06
-3.70043e-06
-3.66658e-06
-3.40096e-06
-3.3942e-06
-3.40571e-06
-3.29915e-06
-3.54829e-06
-3.47851e-06
-3.64678e-06
-3.5409e-06
-3.30888e-06
-3.5409e-06
-3.25671e-06
-3.48937e-06
-3.25671e-06
-3.51845e-06
-3.29237e-06
-3.33753e-06
-3.49957e-06
-3.49957e-06
-3.54375e-06
-3.49957e-06
-3.26215e-06
-3.28485e-06
-3.63697e-06
-3.63697e-06
-3.59834e-06
-3.59834e-06
-3.42256e-06
-3.36462e-06
-3.46412e-06
-3.41817e-06
-3.36462e-06
-3.60885e-06
-3.48305e-06
-3.40107e-06
-3.40248e-06
-3.40248e-06
-3.40248e-06
-3.39183e-06
-3.39183e-06
-3.39823e-06
-3.39823e-06
-3.39823e-06
-3.42633e-06
-3.49983e-06
-3.55133e-06
-3.49049e-06
-3.40563e-06
-3.40563e-06
-3.50665e-06
-3.52869e-06
-3.40072e-06
-3.4954e-06
-3.40072e-06
-3.38435e-06
-3.492e-06
-3.492e-06
-3.492e-06
-3.50819e-06
-3.60755e-06
-3.6168e-06
-3.64184e-06
-3.20211e-06
-3.29221e-06
-3.29221e-06
-3.40864e-06
-3.29221e-06
-3.41162e-06
-3.43536e-06
-3.43536e-06
-3.43536e-06
-3.59767e-06
-3.59767e-06
-3.66276e-06
-3.46315e-06
-3.65608e-06
-3.44042e-06
-3.54651e-06
-3.54756e-06
-3.54756e-06
-3.35322e-06
-3.55712e-06
-3.55712e-06
-3.70772e-06
-3.43614e-06
-3.41096e-06
-3.31324e-06
-3.31324e-06
-3.38165e-06
-3.40399e-06
-3.45943e-06
-3.45943e-06
-3.59581e-06
-3.35952e-06
-3.59581e-06
-3.51231e-06
-3.43201e-06
-3.37909e-06
-3.40917e-06
-3.29265e-06
-3.43756e-06
-3.57393e-06
-3.46663e-06
-3.18426e-06
-3.18426e-06
-3.18443e-06
-3.28444e-06
-3.18426e-06
-3.37215e-06
-3.45148e-06
-3.37215e-06
-3.71138e-06
-3.54386e-06
-3.468e-06
-3.468e-06
-3.40231e-06
-3.35681e-06
-3.39884e-06
-3.33311e-06
-3.52162e-06
-3.50403e-06
-3.54849e-06
-3.36877e-06
-3.36877e-06
-3.31337e-06
-3.31337e-06
-3.36877e-06
-3.498e-06
-3.498e-06
-3.56469e-06
-3.56469e-06
-3.56469e-06
-3.18354e-06
-3.44915e-06
-3.44915e-06
-3.49411e-06
-3.49411e-06
-3.70043e-06
-3.66658e-06
-3.83334e-06
-3.83334e-06
-3.50783e-06
-3.53601e-06
-3.50451e-06
-3.37844e-06
-3.30374e-06
-3.71627e-06
-3.5409e-06
-3.5401e-06
-3.52773e-06
-3.44263e-06
-3.49152e-06
-3.51845e-06
-3.29237e-06
-3.36294e-06
-3.36294e-06
-3.4685e-06
-3.4685e-06
-3.55276e-06
-3.50944e-06
-3.28485e-06
-3.48712e-06
-3.48712e-06
-3.28323e-06
-3.42269e-06
-3.42269e-06
-3.4011e-06
-3.4011e-06
-3.36462e-06
-3.44437e-06
-3.51469e-06
-3.51469e-06
-3.41055e-06
-3.66222e-06
-3.39183e-06
-3.3552e-06
-3.46359e-06
-3.46819e-06
-3.33721e-06
-3.33721e-06
-3.39823e-06
-3.44097e-06
-3.47813e-06
-3.49345e-06
-3.47813e-06
-3.44751e-06
-3.2486e-06
-3.2486e-06
-3.37329e-06
-3.44843e-06
-3.37329e-06
-3.27939e-06
-3.27939e-06
-3.40072e-06
-3.36757e-06
-3.49488e-06
-3.35776e-06
-3.40107e-06
-3.492e-06
-3.58655e-06
-3.58655e-06
-3.40107e-06
-3.62786e-06
-3.40759e-06
-3.4868e-06
-3.3412e-06
-3.29221e-06
-3.26621e-06
-3.3718e-06
-3.46452e-06
-3.46452e-06
-3.43536e-06
-3.31848e-06
-3.37259e-06
-3.37259e-06
-3.2954e-06
-3.43567e-06
-3.70984e-06
-3.70984e-06
-3.50297e-06
-3.5508e-06
-3.57897e-06
-3.57897e-06
-3.70772e-06
-3.44662e-06
-3.65239e-06
-3.36402e-06
-3.51575e-06
-3.36888e-06
-3.33257e-06
-3.33257e-06
-3.33257e-06
-3.42881e-06
-3.40538e-06
-3.42881e-06
-3.36005e-06
-3.50118e-06
-3.50118e-06
-3.21041e-06
-3.21041e-06
-3.21041e-06
-3.20138e-06
-3.22308e-06
-3.20138e-06
-3.45804e-06
-3.41172e-06
-3.49933e-06
-3.49933e-06
-3.37215e-06
-3.64748e-06
-3.39762e-06
-3.35952e-06
-3.34247e-06
-3.34247e-06
-3.48937e-06
-3.47523e-06
-3.58877e-06
-3.65267e-06
-3.65267e-06
-3.51062e-06
-3.30422e-06
-3.5228e-06
-3.45748e-06
-3.36029e-06
-3.48277e-06
-3.36029e-06
-3.65694e-06
-3.56179e-06
-3.56179e-06
-3.18354e-06
-3.40538e-06
-3.44915e-06
-3.44426e-06
-3.49411e-06
-3.45769e-06
-3.44426e-06
-3.5452e-06
-3.2483e-06
-3.4341e-06
-3.50783e-06
-3.30527e-06
-3.32368e-06
-3.43585e-06
-3.44568e-06
-3.43585e-06
-3.45576e-06
-3.46202e-06
-3.51214e-06
-3.45939e-06
-3.44263e-06
-3.39586e-06
-3.44828e-06
-3.53943e-06
-3.59396e-06
-3.53943e-06
-3.46352e-06
-3.46352e-06
-3.4685e-06
-3.54998e-06
-3.39648e-06
-3.50944e-06
-3.34753e-06
-3.34753e-06
-3.46658e-06
-3.34753e-06
-3.30779e-06
-3.41417e-06
-3.62088e-06
-3.5731e-06
-3.62088e-06
-3.72354e-06
-3.56e-06
-3.56e-06
-3.56e-06
-3.26838e-06
-3.38555e-06
-3.66222e-06
-3.39484e-06
-3.55612e-06
-3.55612e-06
-3.46819e-06
-3.2846e-06
-3.5592e-06
-3.5592e-06
-3.47813e-06
-3.23031e-06
-3.17481e-06
-3.31568e-06
-3.52307e-06
-3.52307e-06
-3.44843e-06
-3.84335e-06
-3.44843e-06
-3.46865e-06
-3.4506e-06
-3.33664e-06
-3.51432e-06
-3.45401e-06
-3.48867e-06
-3.70085e-06
-3.70085e-06
-3.597e-06
-3.597e-06
-3.35899e-06
-3.597e-06
-3.49271e-06
-3.4868e-06
-3.46508e-06
-3.46508e-06
-3.3749e-06
-3.51519e-06
-3.34588e-06
-3.4951e-06
-3.64182e-06
-3.4951e-06
-3.26472e-06
-3.26472e-06
-3.65773e-06
-3.65773e-06
-3.2954e-06
-3.35387e-06
-3.21788e-06
-3.55493e-06
-3.36062e-06
-3.50221e-06
-3.54667e-06
-3.44662e-06
-3.27746e-06
-3.62431e-06
-3.4296e-06
-3.51575e-06
-3.39879e-06
-3.4296e-06
-3.30616e-06
-3.35264e-06
-3.35264e-06
-3.42881e-06
-3.26666e-06
-3.2347e-06
-3.41767e-06
-3.28305e-06
-3.28305e-06
-3.25433e-06
-3.20138e-06
-3.44405e-06
-3.38103e-06
-3.47773e-06
-3.47773e-06
-3.36888e-06
-3.36888e-06
-3.36888e-06
-3.41049e-06
-3.54737e-06
-3.27963e-06
-3.29491e-06
-3.45834e-06
-3.53028e-06
-3.58877e-06
-3.39388e-06
-3.46155e-06
-3.50103e-06
-3.37658e-06
-3.35595e-06
-3.31179e-06
-3.4499e-06
-3.31179e-06
-3.36029e-06
-3.39644e-06
-3.39644e-06
-3.41863e-06
-3.39644e-06
-3.3386e-06
-3.58203e-06
-3.63679e-06
-3.63679e-06
-3.52238e-06
-3.37281e-06
-3.38314e-06
-3.37345e-06
-3.28731e-06
-3.3468e-06
-3.28731e-06
-3.43585e-06
-3.32034e-06
-3.63926e-06
-3.61244e-06
-3.5067e-06
-3.26677e-06
-3.41804e-06
-3.43177e-06
-3.54979e-06
-3.4216e-06
-3.30555e-06
-3.30555e-06
-3.46632e-06
-3.46632e-06
-3.39648e-06
-3.50324e-06
-3.34753e-06
-3.23649e-06
-3.46658e-06
-3.41727e-06
-3.53308e-06
-3.41727e-06
-3.52571e-06
-3.52571e-06
-3.39299e-06
-3.28827e-06
-3.61271e-06
-3.49313e-06
-3.39859e-06
-3.38706e-06
-3.39859e-06
-3.57299e-06
-3.53389e-06
-3.55612e-06
-3.41495e-06
-3.44711e-06
-3.2846e-06
-3.53742e-06
-3.5592e-06
-3.35163e-06
-3.3772e-06
-3.33926e-06
-3.49845e-06
-3.42619e-06
-3.44843e-06
-3.84335e-06
-3.42095e-06
-3.51077e-06
-3.56751e-06
-3.56751e-06
-3.33353e-06
-3.56751e-06
-3.51236e-06
-3.38497e-06
-3.30501e-06
-3.30501e-06
-3.48568e-06
-3.46675e-06
-3.46675e-06
-3.59306e-06
-3.31795e-06
-3.31795e-06
-3.30808e-06
-3.39692e-06
-3.39692e-06
-3.50748e-06
-3.34588e-06
-3.34109e-06
-3.50748e-06
-3.64182e-06
-3.59138e-06
-3.56184e-06
-3.29236e-06
-3.26472e-06
-3.65773e-06
-3.34791e-06
-3.27914e-06
-3.36219e-06
-3.48553e-06
-3.41723e-06
-3.41723e-06
-3.51279e-06
-3.45762e-06
-3.4296e-06
-3.88421e-06
-3.58185e-06
-3.4958e-06
-3.44994e-06
-3.38798e-06
-3.38798e-06
-3.54475e-06
-3.38798e-06
-3.43787e-06
-3.33224e-06
-3.28305e-06
-3.36474e-06
-3.44405e-06
-3.57541e-06
-3.57541e-06
-3.47773e-06
-3.53394e-06
-3.4722e-06
-3.4141e-06
-3.62556e-06
-3.69302e-06
-3.69302e-06
-3.29491e-06
-3.44967e-06
-3.44967e-06
-3.47339e-06
-3.4261e-06
-3.42978e-06
-3.30718e-06
-3.32001e-06
-3.37658e-06
-3.37416e-06
-3.31179e-06
-3.47632e-06
-3.37416e-06
-3.44257e-06
-3.28646e-06
-3.28646e-06
-3.42387e-06
-3.42387e-06
-3.40133e-06
-3.5784e-06
-3.40133e-06
-3.59281e-06
-3.36432e-06
-3.26546e-06
-3.42718e-06
-3.54673e-06
-3.28731e-06
-3.30711e-06
-3.31846e-06
-3.53167e-06
-3.43158e-06
-3.39259e-06
-3.37251e-06
-3.37251e-06
-3.51151e-06
-3.37251e-06
-3.57653e-06
-3.57653e-06
-3.38111e-06
-3.47337e-06
-3.4216e-06
-3.49491e-06
-3.41688e-06
-3.5644e-06
-3.5644e-06
-3.41561e-06
-3.36999e-06
-3.36999e-06
-3.45581e-06
-3.37856e-06
-3.37856e-06
-3.37856e-06
-3.42796e-06
-3.52571e-06
-3.51031e-06
-3.20216e-06
-3.39299e-06
-3.39205e-06
-3.39205e-06
-3.4197e-06
-3.4197e-06
-3.40373e-06
-3.51771e-06
-3.36585e-06
-3.37286e-06
-3.37286e-06
-3.44711e-06
-3.2984e-06
-3.30248e-06
-3.53742e-06
-3.404e-06
-3.55105e-06
-3.42619e-06
-3.42619e-06
-3.4195e-06
-3.58292e-06
-3.58292e-06
-3.38821e-06
-3.58292e-06
-3.51077e-06
-3.51077e-06
-3.42095e-06
-3.44139e-06
-3.45515e-06
-3.63913e-06
-3.63913e-06
-3.38497e-06
-3.56502e-06
-3.56502e-06
-3.52018e-06
-3.49215e-06
-3.64169e-06
-3.64169e-06
-3.37334e-06
-3.64169e-06
-3.4396e-06
-3.55694e-06
-3.46155e-06
-3.33319e-06
-3.46155e-06
-3.4395e-06
-3.4395e-06
-3.50742e-06
-3.4395e-06
-3.31412e-06
-3.31412e-06
-3.34603e-06
-3.34603e-06
-3.39528e-06
-3.40144e-06
-3.39528e-06
-3.39657e-06
-3.5116e-06
-3.5116e-06
-3.41723e-06
-3.35954e-06
-3.41565e-06
-3.48125e-06
-3.33217e-06
-3.33217e-06
-3.56054e-06
-3.44994e-06
-3.3133e-06
-3.37368e-06
-3.2828e-06
-3.37068e-06
-3.37068e-06
-3.36474e-06
-3.30834e-06
-3.51063e-06
-3.28932e-06
-3.30343e-06
-3.37735e-06
-3.37735e-06
-3.65649e-06
-3.59998e-06
-3.65649e-06
-3.5198e-06
-3.52499e-06
-3.54473e-06
-3.52499e-06
-3.33878e-06
-3.52311e-06
-3.57968e-06
-3.38876e-06
-3.50904e-06
-3.50904e-06
-3.63063e-06
-3.4119e-06
-3.4119e-06
-3.4119e-06
-3.4119e-06
-3.47567e-06
-3.47567e-06
-3.38568e-06
-3.36427e-06
-3.48999e-06
-3.40133e-06
-3.46471e-06
-3.3684e-06
-3.3684e-06
-3.27889e-06
-3.3684e-06
-3.54822e-06
-3.25152e-06
-3.50664e-06