# vtk DataFile Version 2.0
3D Surface
ASCII
DATASET UNSTRUCTURED_GRID
POINTS 14795 float
-1.2e-05 -1.225e-05 -9.10483e-06 
-1.2e-05 -1.2e-05 -9.09765e-06 
-1.225e-05 -1.225e-05 -9.10255e-06 
-1.225e-05 -1.2e-05 -9.10029e-06 
-1.175e-05 -1.225e-05 -9.11384e-06 
-1.175e-05 -1.2e-05 -9.10414e-06 
-1.15e-05 -1.225e-05 -9.10335e-06 
-1.15e-05 -1.2e-05 -9.105e-06 
-1.125e-05 -1.225e-05 -9.10371e-06 
-1.125e-05 -1.2e-05 -9.10986e-06 
-1.1e-05 -1.225e-05 -9.11097e-06 
-1.1e-05 -1.2e-05 -9.1106e-06 
-1.075e-05 -1.225e-05 -9.11347e-06 
-1.075e-05 -1.2e-05 -9.10187e-06 
-1.05e-05 -1.225e-05 -9.10914e-06 
-1.05e-05 -1.2e-05 -9.10511e-06 
-1.025e-05 -1.225e-05 -9.10463e-06 
-1.025e-05 -1.2e-05 -9.10412e-06 
-1e-05 -1.225e-05 -9.10903e-06 
-1e-05 -1.2e-05 -9.10674e-06 
-9.75e-06 -1.225e-05 -9.09335e-06 
-9.75e-06 -1.2e-05 -9.10328e-06 
-9.5e-06 -1.225e-05 -9.10489e-06 
-9.5e-06 -1.2e-05 -9.10447e-06 
-9.25e-06 -1.225e-05 -9.10312e-06 
-9.25e-06 -1.2e-05 -9.0967e-06 
-9e-06 -1.225e-05 -9.10444e-06 
-9e-06 -1.2e-05 -9.10101e-06 
-8.75e-06 -1.225e-05 -9.10858e-06 
-8.75e-06 -1.2e-05 -9.10601e-06 
-8.5e-06 -1.225e-05 -9.11192e-06 
-8.5e-06 -1.2e-05 -9.11396e-06 
-8.25e-06 -1.225e-05 -9.11327e-06 
-8.25e-06 -1.2e-05 -9.10199e-06 
-8e-06 -1.225e-05 -9.11089e-06 
-8e-06 -1.2e-05 -9.1047e-06 
-7.75e-06 -1.225e-05 -9.11036e-06 
-7.75e-06 -1.2e-05 -9.11014e-06 
-7.5e-06 -1.225e-05 -9.10484e-06 
-7.5e-06 -1.2e-05 -9.10849e-06 
-7.25e-06 -1.225e-05 -9.10494e-06 
-7.25e-06 -1.2e-05 -9.10751e-06 
-7e-06 -1.225e-05 -9.10901e-06 
-7e-06 -1.2e-05 -9.10718e-06 
-6.75e-06 -1.225e-05 -9.10817e-06 
-6.75e-06 -1.2e-05 -9.10826e-06 
-6.5e-06 -1.225e-05 -9.10009e-06 
-6.5e-06 -1.2e-05 -9.10211e-06 
-6.25e-06 -1.225e-05 -9.10587e-06 
-6.25e-06 -1.2e-05 -9.10131e-06 
-6e-06 -1.225e-05 -9.10374e-06 
-6e-06 -1.2e-05 -9.10948e-06 
-5.75e-06 -1.225e-05 -9.10157e-06 
-5.75e-06 -1.2e-05 -9.10817e-06 
-5.5e-06 -1.225e-05 -9.10608e-06 
-5.5e-06 -1.2e-05 -9.10783e-06 
-5.25e-06 -1.225e-05 -9.10964e-06 
-5.25e-06 -1.2e-05 -9.11746e-06 
-5e-06 -1.225e-05 -9.10552e-06 
-5e-06 -1.2e-05 -9.10551e-06 
-4.75e-06 -1.225e-05 -9.10457e-06 
-4.75e-06 -1.2e-05 -9.10302e-06 
-4.5e-06 -1.225e-05 -9.11332e-06 
-4.5e-06 -1.2e-05 -9.10889e-06 
-4.25e-06 -1.225e-05 -9.10718e-06 
-4.25e-06 -1.2e-05 -9.09969e-06 
-4e-06 -1.225e-05 -9.10492e-06 
-4e-06 -1.2e-05 -9.11208e-06 
-3.75e-06 -1.225e-05 -9.1019e-06 
-3.75e-06 -1.2e-05 -9.09979e-06 
-3.5e-06 -1.225e-05 -9.10136e-06 
-3.5e-06 -1.2e-05 -9.1045e-06 
-3.25e-06 -1.225e-05 -9.09726e-06 
-3.25e-06 -1.2e-05 -9.10461e-06 
-3e-06 -1.225e-05 -9.10156e-06 
-3e-06 -1.2e-05 -9.10212e-06 
-2.75e-06 -1.225e-05 -9.10999e-06 
-2.75e-06 -1.2e-05 -9.11072e-06 
-2.5e-06 -1.225e-05 -9.10512e-06 
-2.5e-06 -1.2e-05 -9.10328e-06 
-2.25e-06 -1.225e-05 -9.10663e-06 
-2.25e-06 -1.2e-05 -9.10845e-06 
-2e-06 -1.225e-05 -9.10224e-06 
-2e-06 -1.2e-05 -9.1111e-06 
-1.75e-06 -1.225e-05 -9.10978e-06 
-1.75e-06 -1.2e-05 -9.11097e-06 
-1.5e-06 -1.225e-05 -9.10503e-06 
-1.5e-06 -1.2e-05 -9.10188e-06 
-1.25e-06 -1.225e-05 -9.10206e-06 
-1.25e-06 -1.2e-05 -9.10006e-06 
-1e-06 -1.225e-05 -9.10476e-06 
-1e-06 -1.2e-05 -9.10291e-06 
-7.5e-07 -1.225e-05 -9.10646e-06 
-7.5e-07 -1.2e-05 -9.10775e-06 
-5e-07 -1.225e-05 -9.11305e-06 
-5e-07 -1.2e-05 -9.10416e-06 
-2.5e-07 -1.225e-05 -9.10506e-06 
-2.5e-07 -1.2e-05 -9.11222e-06 
0 -1.225e-05 -9.10426e-06 
0 -1.2e-05 -9.09882e-06 
2.5e-07 -1.225e-05 -9.11179e-06 
2.5e-07 -1.2e-05 -9.09928e-06 
5e-07 -1.225e-05 -9.11158e-06 
5e-07 -1.2e-05 -9.10583e-06 
7.5e-07 -1.225e-05 -9.10577e-06 
7.5e-07 -1.2e-05 -9.10226e-06 
1e-06 -1.225e-05 -9.10683e-06 
1e-06 -1.2e-05 -9.1126e-06 
1.25e-06 -1.225e-05 -9.10125e-06 
1.25e-06 -1.2e-05 -9.11653e-06 
1.5e-06 -1.225e-05 -9.10444e-06 
1.5e-06 -1.2e-05 -9.10732e-06 
1.75e-06 -1.225e-05 -9.1024e-06 
1.75e-06 -1.2e-05 -9.10644e-06 
2e-06 -1.225e-05 -9.11107e-06 
2e-06 -1.2e-05 -9.10361e-06 
2.25e-06 -1.225e-05 -9.10619e-06 
2.25e-06 -1.2e-05 -9.10058e-06 
2.5e-06 -1.225e-05 -9.10883e-06 
2.5e-06 -1.2e-05 -9.10403e-06 
2.75e-06 -1.225e-05 -9.10146e-06 
2.75e-06 -1.2e-05 -9.0991e-06 
3e-06 -1.225e-05 -9.10388e-06 
3e-06 -1.2e-05 -9.10238e-06 
3.25e-06 -1.225e-05 -9.10251e-06 
3.25e-06 -1.2e-05 -9.1024e-06 
3.5e-06 -1.225e-05 -9.10623e-06 
3.5e-06 -1.2e-05 -9.10226e-06 
3.75e-06 -1.225e-05 -9.10295e-06 
3.75e-06 -1.2e-05 -9.10594e-06 
4e-06 -1.225e-05 -9.11232e-06 
4e-06 -1.2e-05 -9.10572e-06 
4.25e-06 -1.225e-05 -9.10501e-06 
4.25e-06 -1.2e-05 -9.10614e-06 
4.5e-06 -1.225e-05 -9.10148e-06 
4.5e-06 -1.2e-05 -9.09955e-06 
4.75e-06 -1.225e-05 -9.10332e-06 
4.75e-06 -1.2e-05 -9.09929e-06 
5e-06 -1.225e-05 -9.10331e-06 
5e-06 -1.2e-05 -9.102e-06 
5.25e-06 -1.225e-05 -9.10977e-06 
5.25e-06 -1.2e-05 -9.10475e-06 
5.5e-06 -1.225e-05 -9.11235e-06 
5.5e-06 -1.2e-05 -9.10992e-06 
5.75e-06 -1.225e-05 -9.10568e-06 
5.75e-06 -1.2e-05 -9.10564e-06 
6e-06 -1.225e-05 -9.1047e-06 
6e-06 -1.2e-05 -9.10849e-06 
6.25e-06 -1.225e-05 -9.11085e-06 
6.25e-06 -1.2e-05 -9.10914e-06 
6.5e-06 -1.225e-05 -9.10953e-06 
6.5e-06 -1.2e-05 -9.11767e-06 
6.75e-06 -1.225e-05 -9.09855e-06 
6.75e-06 -1.2e-05 -9.12062e-06 
7e-06 -1.225e-05 -9.10607e-06 
7e-06 -1.2e-05 -9.10671e-06 
7.25e-06 -1.225e-05 -9.10719e-06 
7.25e-06 -1.2e-05 -9.09253e-06 
7.5e-06 -1.225e-05 -9.1015e-06 
7.5e-06 -1.2e-05 -9.09721e-06 
7.75e-06 -1.225e-05 -9.10738e-06 
7.75e-06 -1.2e-05 -9.10359e-06 
8e-06 -1.225e-05 -9.1048e-06 
8e-06 -1.2e-05 -9.10066e-06 
8.25e-06 -1.225e-05 -9.11571e-06 
8.25e-06 -1.2e-05 -9.11619e-06 
8.5e-06 -1.225e-05 -9.1029e-06 
8.5e-06 -1.2e-05 -9.10277e-06 
8.75e-06 -1.225e-05 -9.10366e-06 
8.75e-06 -1.2e-05 -9.10595e-06 
9e-06 -1.225e-05 -9.10492e-06 
9e-06 -1.2e-05 -9.104e-06 
9.25e-06 -1.225e-05 -9.10691e-06 
9.25e-06 -1.2e-05 -9.11073e-06 
9.5e-06 -1.225e-05 -9.10548e-06 
9.5e-06 -1.2e-05 -9.10477e-06 
9.75e-06 -1.225e-05 -9.11656e-06 
9.75e-06 -1.2e-05 -9.10454e-06 
1e-05 -1.225e-05 -9.10363e-06 
1e-05 -1.2e-05 -9.10569e-06 
1.025e-05 -1.225e-05 -9.10856e-06 
1.025e-05 -1.2e-05 -9.10278e-06 
1.05e-05 -1.225e-05 -9.10775e-06 
1.05e-05 -1.2e-05 -9.10077e-06 
1.075e-05 -1.225e-05 -9.10715e-06 
1.075e-05 -1.2e-05 -9.09965e-06 
1.1e-05 -1.225e-05 -9.10515e-06 
1.1e-05 -1.2e-05 -9.10661e-06 
1.125e-05 -1.225e-05 -9.10509e-06 
1.125e-05 -1.2e-05 -9.09991e-06 
1.15e-05 -1.225e-05 -9.10878e-06 
1.15e-05 -1.2e-05 -9.11002e-06 
1.175e-05 -1.225e-05 -9.11394e-06 
1.175e-05 -1.2e-05 -9.11147e-06 
1.2e-05 -1.225e-05 -9.10183e-06 
1.2e-05 -1.2e-05 -9.0913e-06 
1.225e-05 -1.225e-05 -9.10255e-06 
1.225e-05 -1.2e-05 -9.10029e-06 
-1.2e-05 -1.175e-05 -9.10034e-06 
-1.225e-05 -1.175e-05 -9.10585e-06 
-1.175e-05 -1.175e-05 -9.1072e-06 
-1.15e-05 -1.175e-05 -9.10364e-06 
-1.125e-05 -1.175e-05 -9.09175e-06 
-1.1e-05 -1.175e-05 -9.10641e-06 
-1.075e-05 -1.175e-05 -9.0969e-06 
-1.05e-05 -1.175e-05 -9.10125e-06 
-1.025e-05 -1.175e-05 -9.10293e-06 
-1e-05 -1.175e-05 -9.10784e-06 
-9.75e-06 -1.175e-05 -9.11018e-06 
-9.5e-06 -1.175e-05 -9.10644e-06 
-9.25e-06 -1.175e-05 -9.10272e-06 
-9e-06 -1.175e-05 -9.11117e-06 
-8.75e-06 -1.175e-05 -9.09423e-06 
-8.5e-06 -1.175e-05 -9.09768e-06 
-8.25e-06 -1.175e-05 -9.10201e-06 
-8e-06 -1.175e-05 -9.09845e-06 
-7.75e-06 -1.175e-05 -9.10683e-06 
-7.5e-06 -1.175e-05 -9.11542e-06 
-7.25e-06 -1.175e-05 -9.10287e-06 
-7e-06 -1.175e-05 -9.10322e-06 
-6.75e-06 -1.175e-05 -9.10197e-06 
-6.5e-06 -1.175e-05 -9.10639e-06 
-6.25e-06 -1.175e-05 -9.11522e-06 
-6e-06 -1.175e-05 -9.1041e-06 
-5.75e-06 -1.175e-05 -9.10416e-06 
-5.5e-06 -1.175e-05 -9.10735e-06 
-5.25e-06 -1.175e-05 -9.10531e-06 
-5e-06 -1.175e-05 -9.1045e-06 
-4.75e-06 -1.175e-05 -9.10558e-06 
-4.5e-06 -1.175e-05 -9.10254e-06 
-4.25e-06 -1.175e-05 -9.09516e-06 
-4e-06 -1.175e-05 -9.10957e-06 
-3.75e-06 -1.175e-05 -9.11012e-06 
-3.5e-06 -1.175e-05 -9.1117e-06 
-3.25e-06 -1.175e-05 -9.11134e-06 
-3e-06 -1.175e-05 -9.10129e-06 
-2.75e-06 -1.175e-05 -9.09981e-06 
-2.5e-06 -1.175e-05 -9.09915e-06 
-2.25e-06 -1.175e-05 -9.1076e-06 
-2e-06 -1.175e-05 -9.11544e-06 
-1.75e-06 -1.175e-05 -9.10876e-06 
-1.5e-06 -1.175e-05 -9.10329e-06 
-1.25e-06 -1.175e-05 -9.11229e-06 
-1e-06 -1.175e-05 -9.09804e-06 
-7.5e-07 -1.175e-05 -9.10247e-06 
-5e-07 -1.175e-05 -9.1006e-06 
-2.5e-07 -1.175e-05 -9.11238e-06 
0 -1.175e-05 -9.1071e-06 
2.5e-07 -1.175e-05 -9.10993e-06 
5e-07 -1.175e-05 -9.10392e-06 
7.5e-07 -1.175e-05 -9.10479e-06 
1e-06 -1.175e-05 -9.11629e-06 
1.25e-06 -1.175e-05 -9.10607e-06 
1.5e-06 -1.175e-05 -9.09964e-06 
1.75e-06 -1.175e-05 -9.10281e-06 
2e-06 -1.175e-05 -9.10381e-06 
2.25e-06 -1.175e-05 -9.10318e-06 
2.5e-06 -1.175e-05 -9.10907e-06 
2.75e-06 -1.175e-05 -9.10593e-06 
3e-06 -1.175e-05 -9.10434e-06 
3.25e-06 -1.175e-05 -9.10841e-06 
3.5e-06 -1.175e-05 -9.1074e-06 
3.75e-06 -1.175e-05 -9.10871e-06 
4e-06 -1.175e-05 -9.10523e-06 
4.25e-06 -1.175e-05 -9.1045e-06 
4.5e-06 -1.175e-05 -9.10051e-06 
4.75e-06 -1.175e-05 -9.11274e-06 
5e-06 -1.175e-05 -9.10648e-06 
5.25e-06 -1.175e-05 -9.1039e-06 
5.5e-06 -1.175e-05 -9.1063e-06 
5.75e-06 -1.175e-05 -9.10391e-06 
6e-06 -1.175e-05 -9.11137e-06 
6.25e-06 -1.175e-05 -9.10734e-06 
6.5e-06 -1.175e-05 -9.10204e-06 
6.75e-06 -1.175e-05 -9.11135e-06 
7e-06 -1.175e-05 -9.10283e-06 
7.25e-06 -1.175e-05 -9.09797e-06 
7.5e-06 -1.175e-05 -9.10903e-06 
7.75e-06 -1.175e-05 -9.10642e-06 
8e-06 -1.175e-05 -9.10227e-06 
8.25e-06 -1.175e-05 -9.11212e-06 
8.5e-06 -1.175e-05 -9.11089e-06 
8.75e-06 -1.175e-05 -9.10924e-06 
9e-06 -1.175e-05 -9.10582e-06 
9.25e-06 -1.175e-05 -9.11271e-06 
9.5e-06 -1.175e-05 -9.10227e-06 
9.75e-06 -1.175e-05 -9.10667e-06 
1e-05 -1.175e-05 -9.10649e-06 
1.025e-05 -1.175e-05 -9.1079e-06 
1.05e-05 -1.175e-05 -9.1038e-06 
1.075e-05 -1.175e-05 -9.10847e-06 
1.1e-05 -1.175e-05 -9.11585e-06 
1.125e-05 -1.175e-05 -9.10628e-06 
1.15e-05 -1.175e-05 -9.10852e-06 
1.175e-05 -1.175e-05 -9.10677e-06 
1.2e-05 -1.175e-05 -9.10375e-06 
1.225e-05 -1.175e-05 -9.10585e-06 
-1.2e-05 -1.15e-05 -9.11172e-06 
-1.225e-05 -1.15e-05 -9.10746e-06 
-1.175e-05 -1.15e-05 -9.10705e-06 
-1.15e-05 -1.15e-05 -9.10443e-06 
[...]
POINT_DATA 14795
SCALARS Velocities float 1
LOOKUP_TABLE default
-3.57042e-06
-3.61276e-06
-3.49942e-06
-3.45541e-06
-3.61526e-06
-3.59188e-06
-3.4918e-06
-3.45287e-06
-3.53154e-06
-3.5908e-06
-3.36336e-06
-3.56313e-06
-3.35246e-06
-3.45572e-06
-3.65245e-06
-3.3588e-06
-3.61699e-06
-3.44133e-06
-3.39267e-06
-3.45274e-06
-3.60686e-06
-3.52327e-06
-3.56963e-06
-3.45744e-06
-3.48601e-06
-3.53698e-06
-3.51578e-06
-3.41146e-06
-3.38315e-06
-3.47713e-06
-3.42234e-06
-3.64537e-06
-3.5834e-06
-3.64568e-06
-3.41512e-06
-3.35008e-06
-3.43734e-06
-3.41247e-06
-3.40023e-06
-3.30966e-06
-3.45297e-06
-3.27755e-06
-3.44842e-06
-3.2831e-06
-3.62202e-06
-3.61377e-06
-3.30505e-06
-3.44652e-06
-3.36632e-06
-3.46455e-06
-3.353e-06
-3.33101e-06
-3.41947e-06
-3.50488e-06
-3.4638e-06
-3.60526e-06
-3.4982e-06
-3.53455e-06
-3.37216e-06
-3.41801e-06
-3.39326e-06
-3.29019e-06
-3.44134e-06
-3.38922e-06
-3.52613e-06
-3.60501e-06
-3.35772e-06
-3.41353e-06
-3.35229e-06
-3.56984e-06
-3.39176e-06
-3.52196e-06
-3.54234e-06
-3.46402e-06
-3.56294e-06
-3.54562e-06
-3.41655e-06
-3.60652e-06
-3.42911e-06
-3.41351e-06
-3.32617e-06
-3.51152e-06
-3.48814e-06
-3.53698e-06
-3.46413e-06
-3.72108e-06
-3.42414e-06
-3.4854e-06
-3.36724e-06
-3.44857e-06
-3.39408e-06
-3.37514e-06
-3.60898e-06
-3.45709e-06
-3.48783e-06
-3.5359e-06
-3.16118e-06
-3.28585e-06
-3.41568e-06
-3.45904e-06
-3.50114e-06
-3.82095e-06
-3.58565e-06
-3.57654e-06
-3.51541e-06
-3.52608e-06
-3.57534e-06
-3.59688e-06
-3.45094e-06
-3.33304e-06
-3.40586e-06
-3.43538e-06
-3.37818e-06
-3.64461e-06
-3.4552e-06
-3.45105e-06
-3.34283e-06
-3.44402e-06
-3.5679e-06
-3.58467e-06
-3.48257e-06
-3.47084e-06
-3.3622e-06
-3.52191e-06
-3.3707e-06
-3.41073e-06
-3.48368e-06
-3.45816e-06
-3.56068e-06
-3.32509e-06
-3.45201e-06
-3.41314e-06
-3.53153e-06
-3.62238e-06
-3.54112e-06
-3.30477e-06
-3.43672e-06
-3.43312e-06
-3.34596e-06
-3.60701e-06
-3.23836e-06
-3.55371e-06
-3.18905e-06
-3.36273e-06
-3.48276e-06
-3.46504e-06
-3.28211e-06
-3.26206e-06
-3.29936e-06
-3.35316e-06
-3.37011e-06
-3.33492e-06
-3.46669e-06
-3.34351e-06
-3.3934e-06
-3.50886e-06
-3.23129e-06
-3.35596e-06
-3.44092e-06
-3.43912e-06
-3.16831e-06
-3.60107e-06
-3.46573e-06
-3.55954e-06
-3.48834e-06
-3.55315e-06
-3.43497e-06
-3.39679e-06
-3.5535e-06
-3.34153e-06
-3.54809e-06
-3.35194e-06
-3.40584e-06
-3.23714e-06
-3.47209e-06
-3.33782e-06
-3.28011e-06
-3.31513e-06
-3.43523e-06
-3.47609e-06
-3.43765e-06
-3.37929e-06
-3.66827e-06
-3.4507e-06
-3.59713e-06
-3.34696e-06
-3.36243e-06
-3.31376e-06
-3.34907e-06
-3.51831e-06
-3.37588e-06
-3.40353e-06
-3.33425e-06
-3.33927e-06
-3.38957e-06
-3.41778e-06
-3.49942e-06
-3.45541e-06
-3.6576e-06
-3.4202e-06
-3.47309e-06
-3.49436e-06
-3.5222e-06
-3.56292e-06
-3.54273e-06
-3.33571e-06
-3.14335e-06
-3.35344e-06
-3.44922e-06
-3.45268e-06
-3.49077e-06
-3.52318e-06
-3.54304e-06
-3.66579e-06
-3.48821e-06
-3.44817e-06
-3.72367e-06
-3.78733e-06
-3.41116e-06
-3.32969e-06
-3.57517e-06
-3.37157e-06
-3.57164e-06
-3.45532e-06
-3.23282e-06
-3.48189e-06
-3.39504e-06
-3.4946e-06
-3.50386e-06
-3.35792e-06
-3.43063e-06
-3.34378e-06
-3.52164e-06
-3.50981e-06
-3.57746e-06
-3.43287e-06
-3.32772e-06
-3.29269e-06
-3.24772e-06
-3.37552e-06
-3.56848e-06
-3.41848e-06
-3.53309e-06
-3.52589e-06
-3.47468e-06
-3.38537e-06
-3.39011e-06
-3.47261e-06
-3.76062e-06
-3.50194e-06
-3.30233e-06
-3.46728e-06
-3.43612e-06
-3.40476e-06
-3.58656e-06
-3.6383e-06
-3.54169e-06
-3.48077e-06
-3.58012e-06
-3.2289e-06
-3.60573e-06
-3.39467e-06
-3.56225e-06
-3.45959e-06
-3.51651e-06
-3.35103e-06
-3.38805e-06
-3.38422e-06
-3.47103e-06
-3.47249e-06
-3.69367e-06
-3.41478e-06
-3.56215e-06
-3.48458e-06
-3.57184e-06
-3.3952e-06
-3.32987e-06
-3.2085e-06
-3.31329e-06
-3.42322e-06
-3.52758e-06
-3.36428e-06
-3.37513e-06
-3.25512e-06
-3.30053e-06
-3.4704e-06
-3.52052e-06
-3.37727e-06
-3.38296e-06
-3.51239e-06
-3.37368e-06
-3.3457e-06
-3.46527e-06
-3.54292e-06
-3.26299e-06
-3.56437e-06
-3.4202e-06
-3.37829e-06
-3.37823e-06
-3.53295e-06
-3.3388e-06
-3.30577e-06
-3.43676e-06
-3.37755e-06
-3.4309e-06
-3.44286e-06
-3.52263e-06
-3.54849e-06
-3.45834e-06
-3.3595e-06
-3.58443e-06
-3.63082e-06
-3.52266e-06
-3.13803e-06
-3.36351e-06
-3.55515e-06
-3.29718e-06
-3.44468e-06
-3.24875e-06
-3.42045e-06
-3.3644e-06
-3.37473e-06
-3.46167e-06
-3.36239e-06
-3.54958e-06
-3.48554e-06
-3.38006e-06
-3.42533e-06
-3.22836e-06
-3.4013e-06
-3.7299e-06
-3.49616e-06
-3.41206e-06
-3.41169e-06
-3.52422e-06
-3.46892e-06
-3.42682e-06
-3.24916e-06
-3.39511e-06
-3.33301e-06
-3.58291e-06
-3.61006e-06
-3.42547e-06
-3.27447e-06
-3.46426e-06
-3.54417e-06
-3.51931e-06
-3.61306e-06
-3.55574e-06
-3.3403e-06
-3.52452e-06
-3.36673e-06
-3.45402e-06
-3.28639e-06
-3.1517e-06
-3.31278e-06
-3.52841e-06
-3.51687e-06
-3.41233e-06
-3.2408e-06
-3.42526e-06
-3.46234e-06
-3.47838e-06
-3.42954e-06
-3.61051e-06
-3.65784e-06
-3.35524e-06
-3.53125e-06
-3.53294e-06
-3.41163e-06
-3.42845e-06
-3.49371e-06
-3.38334e-06
-3.72151e-06
-3.62405e-06
-3.3882e-06
-3.28963e-06
-3.13825e-06
-3.11142e-06
-3.32152e-06
-3.35315e-06
-3.48996e-06
-3.29049e-06
-3.45571e-06
-3.56442e-06
-3.49658e-06
-3.38755e-06
-3.35441e-06
-3.59981e-06
-3.38376e-06
-3.46212e-06
-3.47104e-06
-3.57478e-06
-3.48502e-06
-3.59707e-06
-3.37823e-06
-3.42359e-06
-3.50408e-06
-3.31818e-06
-3.34727e-06
-3.28509e-06
-3.30005e-06
-3.41541e-06
-3.77271e-06
-3.56102e-06
-3.38871e-06
-3.64479e-06
-3.55325e-06
-3.19492e-06
-3.36728e-06
-3.33657e-06
-3.54697e-06
-3.36786e-06
-3.49548e-06
-3.4734e-06
-3.1729e-06
-3.39334e-06
-3.17248e-06
-3.34274e-06
-3.55703e-06
-3.42287e-06
-3.40649e-06
-3.5454e-06
-3.54064e-06
-3.28219e-06
-3.45772e-06
-3.35252e-06
-3.49129e-06
-3.44256e-06
-3.43962e-06
-3.50039e-06
-3.39819e-06
-3.32319e-06
-3.38292e-06
-3.62911e-06
-3.42595e-06
-3.1273e-06
-3.19082e-06
-3.29208e-06
-3.43871e-06
-3.6081e-06
-3.58021e-06
-3.60498e-06
-3.75122e-06
-3.46937e-06
-3.45248e-06
-3.60752e-06
-3.43818e-06
-3.6508e-06
-3.51957e-06
-3.344e-06
-3.51644e-06
-3.26166e-06
-3.2736e-06
-3.36866e-06
-3.48493e-06
-3.36476e-06
-3.51618e-06
-3.48248e-06
-3.62701e-06
-3.36289e-06
-3.34251e-06
-3.5552e-06
-3.55339e-06
-3.74913e-06
-3.58744e-06
-3.45399e-06
-3.46313e-06
-3.25674e-06
-3.26984e-06
-3.38963e-06
-3.35588e-06
-3.50085e-06
-3.4579e-06
-3.5253e-06
-3.23418e-06
-3.2853e-06
-3.43707e-06
-3.39779e-06
-3.46697e-06
-3.52865e-06
-3.41288e-06
-3.4482e-06
-3.55961e-06
-3.42641e-06
-3.42226e-06
-3.45338e-06
-3.45763e-06
-3.30328e-06
-3.60728e-06
-3.6723e-06
-3.45265e-06
-3.3556e-06
-3.65086e-06
-3.50408e-06
-3.69744e-06
-3.56778e-06
-3.53948e-06
-3.5601e-06
-3.3464e-06
-3.47593e-06
-3.28702e-06
-3.51578e-06
-3.47487e-06
-3.23278e-06
-3.32724e-06
-3.53831e-06
-3.52647e-06
-3.24669e-06
-3.17766e-06
-3.34973e-06
-3.40745e-06
-3.41149e-06
-3.35897e-06
-3.31787e-06
-3.43983e-06
-3.32727e-06
-3.55595e-06
-3.53082e-06
-3.50292e-06
-3.44083e-06
-3.33791e-06
-3.49031e-06
-3.36237e-06
-3.4442e-06
-3.43307e-06
-3.32391e-06
-3.32293e-06
-3.40515e-06
-3.5483e-06
-3.4905e-06
-3.44385e-06
-3.70932e-06
-3.80234e-06
-3.37642e-06
-3.32363e-06
-3.35961e-06
-3.39326e-06
-3.23872e-06
-3.13593e-06
-3.54273e-06
-3.46234e-06
-3.58844e-06
-3.56474e-06
-3.49403e-06
-3.52826e-06
-3.29127e-06
-3.47303e-06
-3.56446e-06
-3.4115e-06
-3.51842e-06
-3.412e-06
-3.5138e-06
-3.36452e-06
-3.48501e-06
-3.63048e-06
-3.48182e-06
-3.51909e-06
-3.59667e-06
-3.43578e-06
-3.33144e-06
-3.28436e-06
-3.34489e-06
-3.53856e-06
-3.67949e-06
-3.47014e-06
-3.36887e-06
-3.14744e-06
-3.23784e-06
-3.3268e-06
-3.44871e-06
-3.47455e-06
-3.53582e-06
-3.51862e-06
-3.30626e-06
-3.44751e-06
-3.46542e-06
-3.26295e-06
-3.64263e-06
-3.60077e-06
-3.38215e-06
-3.42064e-06
-3.37501e-06
-3.33524e-06
-3.32642e-06
-3.55053e-06
-3.48636e-06
-3.4445e-06
-3.67438e-06
-3.62067e-06
-3.47429e-06
-3.26406e-06
-3.51621e-06
-3.56778e-06
-3.42094e-06
-3.43103e-06
-3.41755e-06
-3.47337e-06
-3.62034e-06
-3.68465e-06
-3.48496e-06
-3.27618e-06
-3.38018e-06
-3.34657e-06
-3.2706e-06
-3.54374e-06
-3.60766e-06
-3.36372e-06
-3.50937e-06
-3.63362e-06
-3.55423e-06
-3.61105e-06
-3.32608e-06
-3.32719e-06
-3.42632e-06
-3.27778e-06
-3.53791e-06
-3.58866e-06
-3.43609e-06
-3.5637e-06
-3.64128e-06
-3.54373e-06
-3.50646e-06
-3.53063e-06
-3.58521e-06
-3.61476e-06
-3.36463e-06
-3.43188e-06
-3.33784e-06
-3.43825e-06
-3.41681e-06
-3.52969e-06
-3.49008e-06
-3.41171e-06
-3.53621e-06
-3.35857e-06
-3.41092e-06
-3.4235e-06
-3.51967e-06
-3.37201e-06
-3.4435e-06
-3.30555e-06
-3.48682e-06
-3.62865e-06
-3.50974e-06
-3.63056e-06
-3.37608e-06
-3.49757e-06
-3.26054e-06
-3.40046e-06
-3.40332e-06
-3.32196e-06
-3.54865e-06
-3.53111e-06
-3.68167e-06
-3.52179e-06
-3.2621e-06
-3.40541e-06
-3.38902e-06
-3.31151e-06
-3.69529e-06
-3.47877e-06
-3.33201e-06
-3.57187e-06
-3.46132e-06
-3.41716e-06
-3.27142e-06
-3.35452e-06
-3.54529e-06
-3.44725e-06
-3.45395e-06
-3.40208e-06
-3.57554e-06
-3.58634e-06
-3.45324e-06
-3.37886e-06
-3.26009e-06
-3.37564e-06
-3.41996e-06
-3.57182e-06
-3.40197e-06
-3.40745e-06
-3.72078e-06
-3.43295e-06
-3.30363e-06
-3.39875e-06
-3.52965e-06
-3.54167e-06
-3.42058e-06
-3.32129e-06
-3.45764e-06
-3.40792e-06
-3.43103e-06
-3.41603e-06
-3.58005e-06
-3.50473e-06
-3.396e-06
-3.62103e-06
-3.5651e-06
-3.57613e-06
-3.34163e-06
-3.45928e-06
-3.36881e-06
-3.3981e-06
-3.75485e-06
-3.4162e-06
-3.48227e-06
-3.27545e-06
-3.49633e-06
-3.39173e-06
-3.37079e-06
-3.28227e-06
-3.27592e-06
-3.48375e-06
-3.53991e-06
-3.28411e-06
-3.44327e-06
-3.43685e-06
-3.35623e-06
-3.35232e-06
-3.49446e-06
-3.47286e-06
-3.4682e-06
-3.49237e-06
-3.43113e-06
-3.34451e-06
-3.54889e-06
-3.49984e-06
-3.31722e-06
-3.30136e-06
-3.37774e-06
-3.53204e-06
-3.37623e-06
-3.38658e-06
-3.47999e-06
-3.33367e-06
-3.4976e-06
-3.76502e-06
-3.43895e-06
-3.61995e-06
-3.35922e-06
-3.48101e-06
-3.47702e-06
-3.35329e-06
-3.47808e-06
-3.53389e-06
-3.53498e-06
-3.61236e-06
-3.47941e-06
-3.40097e-06
-3.51209e-06
-3.53785e-06
-3.45723e-06
-3.28328e-06
-3.33189e-06
-3.38143e-06
-3.37113e-06
-3.55953e-06
-3.48744e-06
-3.55232e-06
-3.36943e-06
-3.30288e-06
-3.32813e-06
-3.39344e-06
-3.28869e-06
-3.56691e-06
-3.33339e-06
-3.65596e-06
-3.68126e-06
-3.4663e-06
-3.43243e-06
-3.37679e-06
-3.49808e-06
-3.52265e-06
-3.42031e-06
-3.30744e-06
-3.60928e-06
-3.35739e-06
-3.37569e-06
-3.48212e-06
-3.24842e-06
-3.46146e-06
-3.31145e-06
-3.3432e-06
-3.37618e-06
-3.27526e-06
-3.51331e-06
-3.41866e-06
-3.53825e-06
-3.46512e-06
-3.31484e-06
-3.58005e-06
-3.41184e-06
-3.37218e-06
-3.30939e-06
-3.37475e-06
-3.46094e-06
-3.38021e-06
-3.51343e-06
-3.50268e-06
-3.37487e-06
-3.48371e-06
-3.38892e-06
-3.4501e-06
-3.49551e-06
-3.58955e-06
-3.4978e-06
-3.43068e-06
-3.54259e-06
-3.38414e-06
-3.46912e-06
-3.54289e-06
-3.53657e-06
-3.51116e-06
-3.3572e-06
-3.37354e-06
-3.56311e-06
-3.40189e-06
-3.55671e-06
-3.66189e-06
-3.47326e-06
-3.37418e-06
-3.74021e-06
-3.72191e-06
-3.57907e-06
-3.56505e-06
-3.3813e-06
-3.5513e-06
-3.68042e-06
-3.51206e-06
-3.57056e-06
-3.27385e-06
-3.36765e-06
-3.46956e-06
-3.36525e-06
-3.66976e-06
-3.57374e-06
-3.43855e-06
-3.49486e-06
-3.49003e-06
-3.57777e-06
-3.25259e-06
-3.35258e-06
-3.38453e-06
-3.32608e-06
-3.44409e-06
-3.56511e-06
-3.37847e-06
-3.31792e-06
-3.51409e-06
-3.6362e-06
-3.41836e-06
-3.42192e-06
-3.39461e-06
-3.33561e-06
-3.26335e-06
-3.67458e-06
-3.55232e-06
-3.36097e-06
-3.45286e-06
-3.41955e-06
-3.35262e-06
-3.13875e-06
-3.31788e-06
-3.48351e-06
-3.3292e-06
-3.38678e-06
-3.51862e-06
-3.55395e-06
-3.4504e-06
-3.34393e-06
-3.49125e-06
-3.69157e-06
-3.40473e-06
-3.27271e-06
-3.51301e-06
-3.29674e-06
-3.34098e-06
-3.52873e-06
-3.41623e-06
-3.21375e-06
-3.27879e-06
-3.30959e-06
-3.33743e-06
-3.47905e-06
-3.48145e-06
-3.55764e-06
-3.41656e-06
-3.28924e-06
-3.21389e-06
-3.37218e-06
-3.43369e-06
-3.5661e-06
-3.31747e-06
-3.73853e-06
-3.43126e-06
-3.51028e-06
-3.63933e-06
-3.50183e-06
-3.3888e-06
-3.41711e-06
-3.23806e-06
-3.27554e-06
-3.42723e-06
-3.47723e-06
-3.53755e-06
-3.41585e-06
-3.40742e-06
-3.46035e-06
-3.42087e-06
-3.49623e-06
-3.53172e-06
-3.52475e-06
-3.33246e-06
-3.62586e-06
-3.64047e-06
-3.31381e-06
-3.34613e-06
-3.64361e-06
-3.40994e-06
-3.39506e-06
-3.39404e-06
-3.4774e-06
-3.74999e-06
-3.47286e-06
-3.47378e-06
-3.50163e-06
-3.43175e-06
-3.58024e-06
-3.53341e-06
-3.46945e-06
-3.39208e-06
-3.50901e-06
-3.25166e-06
-3.23307e-06
-3.51612e-06
-3.31336e-06
-3.44136e-06
-3.45573e-06
-3.6415e-06
-3.40152e-06
-3.5209e-06
-3.2806e-06
-3.31671e-06
-3.52984e-06
-3.38508e-06
-3.32515e-06
-3.35198e-06
-3.38604e-06
-3.57108e-06
-3.47762e-06
-3.56963e-06
-3.52089e-06
-3.37059e-06
-3.4921e-06
-3.6304e-06
-3.52986e-06
-3.30198e-06
-3.41943e-06
-3.39115e-06
-3.48336e-06
-3.3047e-06
-3.45073e-06
-3.24229e-06
-3.32368e-06
-3.40479e-06
-3.58204e-06
-3.63672e-06
-3.55402e-06
-3.46645e-06
-3.24207e-06
-3.54753e-06
-3.41415e-06
-3.20236e-06
-3.58534e-06
-3.46407e-06
-3.45452e-06
-3.43444e-06
-3.47742e-06
-3.48137e-06
-3.46003e-06
-3.78329e-06
-3.60621e-06
-3.35057e-06
-3.36589e-06
-3.65019e-06
-3.64066e-06
-3.56888e-06
-3.55716e-06
-3.5661e-06
-3.44292e-06
-3.59112e-06
-3.40994e-06
-3.65712e-06
-3.43035e-06
-3.56099e-06
-3.63006e-06
-3.62158e-06
-3.55463e-06
-3.42238e-06
-3.47935e-06
-3.30834e-06
-3.40846e-06
-3.56653e-06
-3.45835e-06
-3.48599e-06
-3.57286e-06
-3.32984e-06
-3.28923e-06
-3.4971e-06
-3.63602e-06
-3.59825e-06
-3.17273e-06
-3.469e-06
-3.44362e-06
-3.1368e-06
-3.42764e-06
-3.51056e-06
-3.52177e-06
-3.35017e-06
-3.30254e-06
-3.3617e-06
-3.43218e-06
-3.40088e-06
-3.44779e-06
-3.35999e-06
-3.34983e-06
-3.37732e-06
-3.43521e-06
-3.28608e-06
-3.3665e-06
-3.46782e-06
-3.38628e-06
-3.46483e-06
-3.29672e-06
-3.26606e-06
-3.31732e-06
-3.51427e-06
-3.56418e-06
-3.47716e-06
-3.4985e-06
-3.45723e-06
-3.36337e-06
-3.40794e-06
-3.34036e-06
-3.43471e-06
-3.33958e-06
-3.28575e-06
-3.51466e-06
-3.47275e-06
-3.45624e-06
-3.45987e-06
-3.37296e-06
-3.41878e-06
-3.44341e-06
-3.39583e-06
-3.44056e-06
-3.5564e-06
-3.31602e-06
-3.32859e-06
-3.40933e-06
-3.41276e-06
-3.46702e-06
-3.59781e-06
-3.34027e-06
-3.50262e-06
-3.52182e-06
-3.43898e-06
-3.30498e-06
-3.40755e-06
-3.46445e-06
-3.31552e-06
-3.28441e-06
-3.58505e-06
-3.61947e-06
-3.50928e-06
-3.5387e-06
-3.47468e-06
-3.54365e-06
-3.75543e-06
-3.71213e-06
-3.50326e-06
-3.48327e-06
-3.5309e-06
-3.53382e-06
-3.77098e-06
-3.4639e-06
-3.60218e-06
-3.59112e-06
-3.23354e-06
-3.22044e-06
-3.43196e-06
-3.43572e-06
-3.41732e-06
-3.48397e-06
-3.56687e-06
-3.48709e-06
-3.41239e-06
-3.52612e-06
-3.58237e-06
-3.33895e-06
-3.4005e-06
-3.67245e-06
-3.48925e-06
-3.25869e-06
-3.46935e-06
-3.33459e-06
-3.53632e-06
-3.53494e-06
-3.34667e-06
-3.34826e-06
-3.32224e-06
-3.44884e-06
-3.59275e-06
-3.33531e-06
-3.40431e-06
-3.5175e-06
-3.51286e-06
-3.31081e-06
-3.44271e-06
-3.36734e-06
-3.38681e-06
-3.34491e-06
-3.38143e-06
-3.15855e-06
-3.37206e-06
-3.32749e-06
-3.39132e-06
-3.20944e-06
-3.3731e-06
-3.62795e-06
-3.50433e-06
-3.38699e-06
-3.23758e-06
-3.4516e-06
-3.42738e-06
-3.59424e-06
-3.54685e-06
-3.53994e-06
-3.30197e-06
-3.39884e-06
-3.39696e-06
-3.49532e-06
-3.37247e-06
-3.45074e-06
-3.57621e-06
-3.55794e-06
-3.58645e-06
-3.37463e-06
-3.60531e-06
-3.54446e-06
-3.10014e-06
-3.28121e-06
-3.43878e-06
-3.37621e-06
-3.25832e-06
-3.4343e-06
-3.2448e-06
-3.44147e-06
-3.5361e-06
-3.4699e-06
-3.35506e-06
-3.56722e-06
-3.29119e-06
-3.30428e-06
-3.34112e-06
-3.35411e-06
-3.34677e-06
-3.34622e-06
-3.24498e-06
-3.38769e-06
-3.40798e-06
-3.53324e-06
-3.56405e-06
-3.35128e-06
-3.6355e-06
-3.3948e-06
-3.24024e-06
-3.40449e-06
-3.41748e-06
-3.46574e-06
-3.44004e-06
-3.48486e-06
-3.41695e-06
-3.51562e-06
-3.19406e-06
-3.45744e-06
-3.22044e-06
-3.35986e-06
-3.35625e-06
-3.33434e-06
-3.52292e-06
-3.34096e-06
-3.27543e-06
-3.48035e-06
-3.43588e-06
-3.50783e-06
-3.44572e-06
-3.31493e-06
-3.31598e-06
-3.43977e-06
-3.61871e-06
-3.48375e-06
-3.37522e-06
-3.53535e-06
-3.40621e-06
-3.30627e-06
-3.38299e-06
-3.48886e-06
-3.47409e-06
-3.33886e-06
-3.2409e-06
-3.5747e-06
-3.53622e-06
-3.46928e-06
-3.56206e-06
-3.57481e-06
-3.61843e-06
-3.47759e-06
-3.40727e-06
-3.57255e-06
-3.48572e-06
-3.76874e-06
-3.3803e-06
-3.37141e-06
-3.51413e-06
-3.52047e-06
-3.20852e-06
-3.57473e-06
-3.4068e-06
-3.45774e-06
-3.62782e-06
-3.482e-06
-3.55233e-06
-3.47636e-06
-3.38635e-06
-3.33727e-06
-3.46213e-06
-3.5134e-06
-3.57669e-06
-3.36828e-06
-3.51024e-06
-3.2567e-06
-3.43857e-06
-3.55119e-06
-3.60145e-06
-3.28514e-06
-3.34741e-06
-3.57077e-06
-3.53576e-06
-3.36397e-06
-3.31523e-06
-3.47107e-06
-3.43233e-06
-3.55225e-06
-3.41808e-06
-3.59343e-06
-3.52227e-06
-3.59611e-06
-3.55358e-06
-3.4063e-06
-3.43197e-06
-3.28128e-06
-3.45659e-06
-3.54037e-06
-3.46762e-06
-3.54695e-06
-3.37827e-06
-3.47141e-06
-3.49799e-06
-3.53811e-06
-3.45602e-06
-3.43688e-06
-3.28214e-06
-3.37153e-06
-3.39543e-06
-3.27035e-06
-3.57333e-06
-3.38462e-06
-3.46595e-06
-3.22353e-06
-3.47782e-06
-3.41119e-06
-3.47151e-06
-3.61953e-06
-3.70062e-06
-3.35625e-06
-3.53348e-06
-3.20943e-06
-3.40279e-06
-3.53678e-06
-3.34797e-06
-3.23595e-06
-3.57103e-06
-3.29566e-06
-3.50473e-06
-3.66195e-06
-3.31315e-06
-3.28571e-06
-3.54215e-06
-3.50143e-06
-3.31874e-06
-3.66741e-06
-3.57414e-06
-3.31541e-06
-3.35757e-06
-3.36213e-06
-3.52845e-06
-3.34104e-06
-3.47299e-06
-3.45689e-06
-3.53331e-06
-3.37703e-06
-3.37685e-06
-3.42833e-06
-3.37497e-06
-3.57702e-06
-3.44306e-06
-3.49774e-06
-3.41865e-06
-3.33544e-06
-3.64629e-06
-3.4577e-06
-3.51126e-06
-3.671e-06
-3.53041e-06
-3.12283e-06
-3.40833e-06
-3.42087e-06
-3.57471e-06
-3.42807e-06
-3.27272e-06
-3.42528e-06
-3.33589e-06
-3.40061e-06
-3.36349e-06
-3.27679e-06
-3.39706e-06
-3.52337e-06
-3.28783e-06
-3.43908e-06
-3.29738e-06
-3.27446e-06
-3.42573e-06
-3.58006e-06
-3.27349e-06
-3.22691e-06
-3.51256e-06
-3.48987e-06
-3.28759e-06
-3.53169e-06
-3.66693e-06
-3.42841e-06
-3.24848e-06
-3.40214e-06
-3.61024e-06
-3.5497e-06
-3.72036e-06
-3.42406e-06
-3.49592e-06
-3.44719e-06
-3.29787e-06
-3.43006e-06
-3.4034e-06
-3.53156e-06
-3.56658e-06
-3.43617e-06
-3.47772e-06
-3.36815e-06
-3.37739e-06
-3.56246e-06
-3.49936e-06
-3.27821e-06
-3.26822e-06
-3.28371e-06
-3.3241e-06
-3.59849e-06
-3.36291e-06
-3.56908e-06
-3.38975e-06
-3.53174e-06
-3.52749e-06
-3.4648e-06
-3.59084e-06
-3.35804e-06
-3.20943e-06
-3.46263e-06
-3.44557e-06
-3.2991e-06
-3.29491e-06
-3.4135e-06
-3.3379e-06
-3.63051e-06
-3.28398e-06
-3.50982e-06
-3.69421e-06
-3.68328e-06
-3.44823e-06
-3.43032e-06
-3.38555e-06
-3.16987e-06
-3.2873e-06
-3.36901e-06
-3.28133e-06
-3.452e-06
-3.40769e-06
-3.29191e-06
-3.38542e-06
-3.51663e-06
-3.50273e-06
-3.49363e-06
-3.43924e-06
-3.52421e-06
-3.49049e-06
-3.58622e-06
-3.39909e-06
-3.47966e-06
-3.37106e-06
-3.37833e-06
-3.52449e-06
-3.51725e-06
-3.14445e-06
-3.25494e-06
-3.42069e-06
-3.38317e-06
-3.23956e-06
-3.41272e-06
-3.51527e-06
-3.55508e-06
-3.41824e-06
-3.47218e-06
-3.4198e-06
-3.4002e-06
-3.4754e-06
-3.4576e-06
-3.27664e-06
-3.32098e-06
-3.40129e-06
-3.40068e-06
-3.69368e-06
-3.52608e-06
-3.40376e-06
-3.52516e-06
-3.55596e-06
-3.32742e-06
-3.33928e-06
-3.44787e-06
-3.36013e-06
-3.38958e-06
-3.60173e-06
-3.6692e-06
-3.48154e-06
-3.38763e-06
-3.43283e-06
-3.54871e-06
-3.4546e-06
-3.45822e-06
-3.20556e-06
-3.36803e-06
-3.46698e-06
-3.53589e-06
-3.41396e-06
-3.35206e-06
-3.53432e-06
-3.37923e-06
-3.29586e-06
-3.3834e-06
-3.7131e-06
-3.66606e-06
-3.51892e-06
-3.4526e-06
-3.49087e-06
-3.39333e-06
-3.32941e-06
-3.42792e-06
-3.57539e-06
-3.42562e-06
-3.51386e-06
-3.3569e-06
-3.39251e-06
-3.52238e-06
-3.5093e-06
-3.52944e-06
-3.31705e-06
-3.44557e-06
-3.63429e-06
-3.51634e-06
-3.54754e-06
-3.51547e-06
-3.54042e-06
-3.42535e-06
-3.51369e-06
-3.24407e-06
-3.46594e-06
-3.6632e-06
-3.68638e-06
-3.31945e-06
-3.37295e-06
-3.24467e-06
-3.1392e-06
-3.33702e-06
-3.34857e-06
-3.35903e-06
-3.6147e-06
-3.46507e-06
-3.61022e-06
-3.53406e-06
-3.40898e-06
-3.50459e-06
-3.34786e-06
-3.28656e-06
-3.46671e-06
-3.26624e-06
-3.44695e-06
-3.55938e-06
-3.62606e-06
-3.40154e-06
-3.42312e-06
-3.55593e-06
-3.44216e-06
-3.20221e-06
-3.29829e-06
-3.3561e-06
-3.31213e-06
-3.44183e-06
-3.61737e-06
-3.58683e-06
-3.59117e-06
-3.5046e-06
-3.68277e-06
-3.56791e-06
-3.48327e-06
-3.43363e-06
-3.57585e-06
-3.42432e-06
-3.5852e-06
-3.62835e-06
-3.31671e-06
-3.47947e-06
-3.55543e-06
-3.29052e-06
-3.65085e-06
-3.45093e-06
-3.47969e-06
-3.62391e-06