# vtk DataFile Version 2.0
3D Surface
ASCII
DATASET UNSTRUCTURED_GRID
POINTS 15181 float
-1.2e-05 -1.225e-05 -9.79416e-06 
-1.2e-05 -1.2e-05 -9.79088e-06 
-1.225e-05 -1.225e-05 -9.78359e-06 
-1.225e-05 -1.2e-05 -9.7847e-06 
-1.175e-05 -1.225e-05 -9.80198e-06 
-1.175e-05 -1.2e-05 -9.79151e-06 
-1.15e-05 -1.225e-05 -9.7913e-06 
-1.15e-05 -1.2e-05 -9.78517e-06 
-1.125e-05 -1.225e-05 -9.79303e-06 
-1.125e-05 -1.2e-05 -9.7946e-06 
-1.1e-05 -1.225e-05 -9.8027e-06 
-1.1e-05 -1.2e-05 -9.79881e-06 
-1.075e-05 -1.225e-05 -9.80373e-06 
-1.075e-05 -1.2e-05 -9.7925e-06 
-1.05e-05 -1.225e-05 -9.79616e-06 
-1.05e-05 -1.2e-05 -9.7883e-06 
-1.025e-05 -1.225e-05 -9.79915e-06 
-1.025e-05 -1.2e-05 -9.79244e-06 
-1e-05 -1.225e-05 -9.79594e-06 
-1e-05 -1.2e-05 -9.79322e-06 
-9.75e-06 -1.225e-05 -9.78259e-06 
-9.75e-06 -1.2e-05 -9.78939e-06 
-9.5e-06 -1.225e-05 -9.79049e-06 
-9.5e-06 -1.2e-05 -9.78869e-06 
-9.25e-06 -1.225e-05 -9.79538e-06 
-9.25e-06 -1.2e-05 -9.78772e-06 
-9e-06 -1.225e-05 -9.79368e-06 
-9e-06 -1.2e-05 -9.78624e-06 
-8.75e-06 -1.225e-05 -9.79172e-06 
-8.75e-06 -1.2e-05 -9.79293e-06 
-8.5e-06 -1.225e-05 -9.79863e-06 
-8.5e-06 -1.2e-05 -9.80274e-06 
-8.25e-06 -1.225e-05 -9.79573e-06 
-8.25e-06 -1.2e-05 -9.79038e-06 
-8e-06 -1.225e-05 -9.79301e-06 
-8e-06 -1.2e-05 -9.78942e-06 
-7.75e-06 -1.225e-05 -9.7967e-06 
-7.75e-06 -1.2e-05 -9.79633e-06 
-7.5e-06 -1.225e-05 -9.78545e-06 
-7.5e-06 -1.2e-05 -9.78776e-06 
-7.25e-06 -1.225e-05 -9.78712e-06 
-7.25e-06 -1.2e-05 -9.79467e-06 
-7e-06 -1.225e-05 -9.79851e-06 
-7e-06 -1.2e-05 -9.79943e-06 
-6.75e-06 -1.225e-05 -9.79259e-06 
-6.75e-06 -1.2e-05 -9.79565e-06 
-6.5e-06 -1.225e-05 -9.78757e-06 
-6.5e-06 -1.2e-05 -9.79267e-06 
-6.25e-06 -1.225e-05 -9.794e-06 
-6.25e-06 -1.2e-05 -9.79474e-06 
-6e-06 -1.225e-05 -9.78622e-06 
-6e-06 -1.2e-05 -9.79793e-06 
-5.75e-06 -1.225e-05 -9.79016e-06 
-5.75e-06 -1.2e-05 -9.79832e-06 
-5.5e-06 -1.225e-05 -9.80548e-06 
-5.5e-06 -1.2e-05 -9.80052e-06 
-5.25e-06 -1.225e-05 -9.80066e-06 
-5.25e-06 -1.2e-05 -9.80476e-06 
-5e-06 -1.225e-05 -9.79e-06 
-5e-06 -1.2e-05 -9.79478e-06 
-4.75e-06 -1.225e-05 -9.79507e-06 
-4.75e-06 -1.2e-05 -9.79613e-06 
-4.5e-06 -1.225e-05 -9.80978e-06 
-4.5e-06 -1.2e-05 -9.80038e-06 
-4.25e-06 -1.225e-05 -9.80507e-06 
-4.25e-06 -1.2e-05 -9.79264e-06 
-4e-06 -1.225e-05 -9.80112e-06 
-4e-06 -1.2e-05 -9.79582e-06 
-3.75e-06 -1.225e-05 -9.79434e-06 
-3.75e-06 -1.2e-05 -9.78585e-06 
-3.5e-06 -1.225e-05 -9.7904e-06 
-3.5e-06 -1.2e-05 -9.7934e-06 
-3.25e-06 -1.225e-05 -9.78651e-06 
-3.25e-06 -1.2e-05 -9.79759e-06 
-3e-06 -1.225e-05 -9.79406e-06 
-3e-06 -1.2e-05 -9.79459e-06 
-2.75e-06 -1.225e-05 -9.79842e-06 
-2.75e-06 -1.2e-05 -9.7952e-06 
-2.5e-06 -1.225e-05 -9.7882e-06 
-2.5e-06 -1.2e-05 -9.79904e-06 
-2.25e-06 -1.225e-05 -9.79782e-06 
-2.25e-06 -1.2e-05 -9.80259e-06 
-2e-06 -1.225e-05 -9.80018e-06 
-2e-06 -1.2e-05 -9.80502e-06 
-1.75e-06 -1.225e-05 -9.79568e-06 
-1.75e-06 -1.2e-05 -9.79701e-06 
-1.5e-06 -1.225e-05 -9.78791e-06 
-1.5e-06 -1.2e-05 -9.791e-06 
-1.25e-06 -1.225e-05 -9.79134e-06 
-1.25e-06 -1.2e-05 -9.79708e-06 
-1e-06 -1.225e-05 -9.79871e-06 
-1e-06 -1.2e-05 -9.79865e-06 
-7.5e-07 -1.225e-05 -9.8002e-06 
-7.5e-07 -1.2e-05 -9.79341e-06 
-5e-07 -1.225e-05 -9.79624e-06 
-5e-07 -1.2e-05 -9.7914e-06 
-2.5e-07 -1.225e-05 -9.78941e-06 
-2.5e-07 -1.2e-05 -9.79717e-06 
0 -1.225e-05 -9.79374e-06 
0 -1.2e-05 -9.7889e-06 
2.5e-07 -1.225e-05 -9.79778e-06 
2.5e-07 -1.2e-05 -9.78763e-06 
5e-07 -1.225e-05 -9.79565e-06 
5e-07 -1.2e-05 -9.78567e-06 
7.5e-07 -1.225e-05 -9.78897e-06 
7.5e-07 -1.2e-05 -9.78848e-06 
1e-06 -1.225e-05 -9.79411e-06 
1e-06 -1.2e-05 -9.79543e-06 
1.25e-06 -1.225e-05 -9.7931e-06 
1.25e-06 -1.2e-05 -9.8059e-06 
1.5e-06 -1.225e-05 -9.79728e-06 
1.5e-06 -1.2e-05 -9.80045e-06 
1.75e-06 -1.225e-05 -9.78602e-06 
1.75e-06 -1.2e-05 -9.79973e-06 
2e-06 -1.225e-05 -9.79656e-06 
2e-06 -1.2e-05 -9.79705e-06 
2.25e-06 -1.225e-05 -9.792e-06 
2.25e-06 -1.2e-05 -9.79756e-06 
2.5e-06 -1.225e-05 -9.79451e-06 
2.5e-06 -1.2e-05 -9.79791e-06 
2.75e-06 -1.225e-05 -9.78742e-06 
2.75e-06 -1.2e-05 -9.79105e-06 
3e-06 -1.225e-05 -9.79624e-06 
3e-06 -1.2e-05 -9.7904e-06 
3.25e-06 -1.225e-05 -9.78841e-06 
3.25e-06 -1.2e-05 -9.78218e-06 
3.5e-06 -1.225e-05 -9.79404e-06 
3.5e-06 -1.2e-05 -9.79069e-06 
3.75e-06 -1.225e-05 -9.79746e-06 
3.75e-06 -1.2e-05 -9.79725e-06 
4e-06 -1.225e-05 -9.79296e-06 
4e-06 -1.2e-05 -9.79375e-06 
4.25e-06 -1.225e-05 -9.78252e-06 
4.25e-06 -1.2e-05 -9.79922e-06 
4.5e-06 -1.225e-05 -9.79265e-06 
4.5e-06 -1.2e-05 -9.7911e-06 
4.75e-06 -1.225e-05 -9.79504e-06 
4.75e-06 -1.2e-05 -9.7876e-06 
5e-06 -1.225e-05 -9.79419e-06 
5e-06 -1.2e-05 -9.79231e-06 
5.25e-06 -1.225e-05 -9.79614e-06 
5.25e-06 -1.2e-05 -9.79177e-06 
5.5e-06 -1.225e-05 -9.79594e-06 
5.5e-06 -1.2e-05 -9.79333e-06 
5.75e-06 -1.225e-05 -9.79101e-06 
5.75e-06 -1.2e-05 -9.79737e-06 
6e-06 -1.225e-05 -9.80154e-06 
6e-06 -1.2e-05 -9.79443e-06 
6.25e-06 -1.225e-05 -9.79397e-06 
6.25e-06 -1.2e-05 -9.79349e-06 
6.5e-06 -1.225e-05 -9.79288e-06 
6.5e-06 -1.2e-05 -9.79484e-06 
6.75e-06 -1.225e-05 -9.78363e-06 
6.75e-06 -1.2e-05 -9.80989e-06 
7e-06 -1.225e-05 -9.79007e-06 
7e-06 -1.2e-05 -9.79577e-06 
7.25e-06 -1.225e-05 -9.7937e-06 
7.25e-06 -1.2e-05 -9.78488e-06 
7.5e-06 -1.225e-05 -9.79421e-06 
7.5e-06 -1.2e-05 -9.78884e-06 
7.75e-06 -1.225e-05 -9.79908e-06 
7.75e-06 -1.2e-05 -9.79635e-06 
8e-06 -1.225e-05 -9.79296e-06 
8e-06 -1.2e-05 -9.78696e-06 
8.25e-06 -1.225e-05 -9.80123e-06 
8.25e-06 -1.2e-05 -9.80352e-06 
8.5e-06 -1.225e-05 -9.79184e-06 
8.5e-06 -1.2e-05 -9.78879e-06 
8.75e-06 -1.225e-05 -9.79428e-06 
8.75e-06 -1.2e-05 -9.7932e-06 
9e-06 -1.225e-05 -9.79971e-06 
9e-06 -1.2e-05 -9.79144e-06 
9.25e-06 -1.225e-05 -9.79934e-06 
9.25e-06 -1.2e-05 -9.80267e-06 
9.5e-06 -1.225e-05 -9.78987e-06 
9.5e-06 -1.2e-05 -9.79224e-06 
9.75e-06 -1.225e-05 -9.79986e-06 
9.75e-06 -1.2e-05 -9.79714e-06 
1e-05 -1.225e-05 -9.79653e-06 
1e-05 -1.2e-05 -9.79893e-06 
1.025e-05 -1.225e-05 -9.80257e-06 
1.025e-05 -1.2e-05 -9.78709e-06 
1.05e-05 -1.225e-05 -9.79962e-06 
1.05e-05 -1.2e-05 -9.78342e-06 
1.075e-05 -1.225e-05 -9.79715e-06 
1.075e-05 -1.2e-05 -9.79313e-06 
1.1e-05 -1.225e-05 -9.79583e-06 
1.1e-05 -1.2e-05 -9.7946e-06 
1.125e-05 -1.225e-05 -9.7961e-06 
1.125e-05 -1.2e-05 -9.79078e-06 
1.15e-05 -1.225e-05 -9.80485e-06 
1.15e-05 -1.2e-05 -9.79349e-06 
1.175e-05 -1.225e-05 -9.80552e-06 
1.175e-05 -1.2e-05 -9.79523e-06 
1.2e-05 -1.225e-05 -9.79245e-06 
1.2e-05 -1.2e-05 -9.78708e-06 
1.225e-05 -1.225e-05 -9.78359e-06 
1.225e-05 -1.2e-05 -9.7847e-06 
-1.2e-05 -1.175e-05 -9.79725e-06 
-1.225e-05 -1.175e-05 -9.79438e-06 
-1.175e-05 -1.175e-05 -9.7928e-06 
-1.15e-05 -1.175e-05 -9.79415e-06 
-1.125e-05 -1.175e-05 -9.78575e-06 
-1.1e-05 -1.175e-05 -9.79139e-06 
-1.075e-05 -1.175e-05 -9.78521e-06 
-1.05e-05 -1.175e-05 -9.78987e-06 
-1.025e-05 -1.175e-05 -9.788e-06 
-1e-05 -1.175e-05 -9.79254e-06 
-9.75e-06 -1.175e-05 -9.79955e-06 
-9.5e-06 -1.175e-05 -9.79246e-06 
-9.25e-06 -1.175e-05 -9.79449e-06 
-9e-06 -1.175e-05 -9.79492e-06 
-8.75e-06 -1.175e-05 -9.78998e-06 
-8.5e-06 -1.175e-05 -9.79198e-06 
-8.25e-06 -1.175e-05 -9.7938e-06 
-8e-06 -1.175e-05 -9.79625e-06 
-7.75e-06 -1.175e-05 -9.79317e-06 
-7.5e-06 -1.175e-05 -9.80437e-06 
-7.25e-06 -1.175e-05 -9.8013e-06 
-7e-06 -1.175e-05 -9.79677e-06 
-6.75e-06 -1.175e-05 -9.79071e-06 
-6.5e-06 -1.175e-05 -9.79412e-06 
-6.25e-06 -1.175e-05 -9.807e-06 
-6e-06 -1.175e-05 -9.7942e-06 
-5.75e-06 -1.175e-05 -9.79593e-06 
-5.5e-06 -1.175e-05 -9.79557e-06 
-5.25e-06 -1.175e-05 -9.79681e-06 
-5e-06 -1.175e-05 -9.79235e-06 
-4.75e-06 -1.175e-05 -9.80491e-06 
-4.5e-06 -1.175e-05 -9.7866e-06 
-4.25e-06 -1.175e-05 -9.78468e-06 
-4e-06 -1.175e-05 -9.79851e-06 
-3.75e-06 -1.175e-05 -9.79364e-06 
-3.5e-06 -1.175e-05 -9.79956e-06 
-3.25e-06 -1.175e-05 -9.8007e-06 
-3e-06 -1.175e-05 -9.79057e-06 
-2.75e-06 -1.175e-05 -9.78967e-06 
-2.5e-06 -1.175e-05 -9.78639e-06 
-2.25e-06 -1.175e-05 -9.79223e-06 
-2e-06 -1.175e-05 -9.80536e-06 
-1.75e-06 -1.175e-05 -9.79897e-06 
-1.5e-06 -1.175e-05 -9.79159e-06 
-1.25e-06 -1.175e-05 -9.8021e-06 
-1e-06 -1.175e-05 -9.79096e-06 
-7.5e-07 -1.175e-05 -9.7894e-06 
-5e-07 -1.175e-05 -9.78471e-06 
-2.5e-07 -1.175e-05 -9.80515e-06 
0 -1.175e-05 -9.79547e-06 
2.5e-07 -1.175e-05 -9.80374e-06 
5e-07 -1.175e-05 -9.78689e-06 
7.5e-07 -1.175e-05 -9.79182e-06 
1e-06 -1.175e-05 -9.80058e-06 
1.25e-06 -1.175e-05 -9.79954e-06 
1.5e-06 -1.175e-05 -9.79573e-06 
1.75e-06 -1.175e-05 -9.79888e-06 
2e-06 -1.175e-05 -9.79527e-06 
2.25e-06 -1.175e-05 -9.79439e-06 
2.5e-06 -1.175e-05 -9.79798e-06 
2.75e-06 -1.175e-05 -9.7943e-06 
3e-06 -1.175e-05 -9.79077e-06 
3.25e-06 -1.175e-05 -9.79935e-06 
3.5e-06 -1.175e-05 -9.79945e-06 
3.75e-06 -1.175e-05 -9.79272e-06 
4e-06 -1.175e-05 -9.78606e-06 
4.25e-06 -1.175e-05 -9.79445e-06 
4.5e-06 -1.175e-05 -9.78557e-06 
4.75e-06 -1.175e-05 -9.79411e-06 
5e-06 -1.175e-05 -9.79771e-06 
5.25e-06 -1.175e-05 -9.78957e-06 
5.5e-06 -1.175e-05 -9.78848e-06 
5.75e-06 -1.175e-05 -9.79794e-06 
6e-06 -1.175e-05 -9.79989e-06 
6.25e-06 -1.175e-05 -9.79612e-06 
6.5e-06 -1.175e-05 -9.79057e-06 
6.75e-06 -1.175e-05 -9.80331e-06 
7e-06 -1.175e-05 -9.79802e-06 
7.25e-06 -1.175e-05 -9.79349e-06 
7.5e-06 -1.175e-05 -9.80389e-06 
7.75e-06 -1.175e-05 -9.79906e-06 
8e-06 -1.175e-05 -9.79651e-06 
8.25e-06 -1.175e-05 -9.79885e-06 
8.5e-06 -1.175e-05 -9.79279e-06 
8.75e-06 -1.175e-05 -9.79532e-06 
9e-06 -1.175e-05 -9.79261e-06 
9.25e-06 -1.175e-05 -9.79279e-06 
9.5e-06 -1.175e-05 -9.78829e-06 
9.75e-06 -1.175e-05 -9.80133e-06 
1e-05 -1.175e-05 -9.80058e-06 
1.025e-05 -1.175e-05 -9.78773e-06 
1.05e-05 -1.175e-05 -9.78686e-06 
1.075e-05 -1.175e-05 -9.79912e-06 
1.1e-05 -1.175e-05 -9.8036e-06 
1.125e-05 -1.175e-05 -9.80012e-06 
1.15e-05 -1.175e-05 -9.80109e-06 
1.175e-05 -1.175e-05 -9.79465e-06 
1.2e-05 -1.175e-05 -9.79212e-06 
1.225e-05 -1.175e-05 -9.79438e-06 
-1.2e-05 -1.15e-05 -9.7971e-06 
-1.225e-05 -1.15e-05 -9.79295e-06 
-1.175e-05 -1.15e-05 -9.79557e-06 
-1.15e-05 -1.15e-05 -9.79361e-06 
-1.125e-05 -1.15e-05 -9.79908e-06 
[...]
POINT_DATA 15181
SCALARS Velocities float 1
LOOKUP_TABLE default
-3.38499e-06
-3.29366e-06
-3.40095e-06
-3.40988e-06
-3.50315e-06
-3.56885e-06
-3.34943e-06
-3.42471e-06
-3.52829e-06
-3.40518e-06
-3.43894e-06
-3.4835e-06
-3.49612e-06
-3.57165e-06
-3.51391e-06
-3.44685e-06
-3.49963e-06
-3.38872e-06
-3.31593e-06
-3.37925e-06
-3.43374e-06
-3.4631e-06
-3.50688e-06
-3.77665e-06
-3.6306e-06
-3.57789e-06
-3.33595e-06
-3.38393e-06
-3.30753e-06
-3.56455e-06
-3.40541e-06
-3.49557e-06
-3.55994e-06
-3.57183e-06
-3.6057e-06
-3.58779e-06
-3.50175e-06
-3.38576e-06
-3.43965e-06
-3.41946e-06
-3.47192e-06
-3.51851e-06
-3.44034e-06
-3.50138e-06
-3.5775e-06
-3.55334e-06
-3.64707e-06
-3.61782e-06
-3.22008e-06
-3.35707e-06
-3.2435e-06
-3.41212e-06
-3.56327e-06
-3.50193e-06
-3.5203e-06
-3.47422e-06
-3.44271e-06
-3.55599e-06
-3.49698e-06
-3.43814e-06
-3.5236e-06
-3.57101e-06
-3.44445e-06
-3.42882e-06
-3.37803e-06
-3.47836e-06
-3.49528e-06
-3.48933e-06
-3.45656e-06
-3.62854e-06
-3.49782e-06
-3.72242e-06
-3.33633e-06
-3.53574e-06
-3.60225e-06
-3.54512e-06
-3.77179e-06
-3.4929e-06
-3.69497e-06
-3.50107e-06
-3.54095e-06
-3.35001e-06
-3.62819e-06
-3.44209e-06
-3.4786e-06
-3.40769e-06
-3.30855e-06
-3.41623e-06
-3.52915e-06
-3.45374e-06
-3.68189e-06
-3.23085e-06
-3.51541e-06
-3.57449e-06
-3.45924e-06
-3.79415e-06
-3.35055e-06
-3.57781e-06
-3.36576e-06
-3.54148e-06
-3.51431e-06
-3.49866e-06
-3.42593e-06
-3.434e-06
-3.51244e-06
-3.29253e-06
-3.52599e-06
-3.44317e-06
-3.34971e-06
-3.41045e-06
-3.46361e-06
-3.28657e-06
-3.61019e-06
-3.50029e-06
-3.54581e-06
-3.59444e-06
-3.54353e-06
-3.42592e-06
-3.25662e-06
-3.40168e-06
-3.35257e-06
-3.3829e-06
-3.39285e-06
-3.51132e-06
-3.42451e-06
-3.59179e-06
-3.41284e-06
-3.58427e-06
-3.47357e-06
-3.59632e-06
-3.49333e-06
-3.45674e-06
-3.50332e-06
-3.64091e-06
-3.3529e-06
-3.47023e-06
-3.39407e-06
-3.34251e-06
-3.48585e-06
-3.43381e-06
-3.34167e-06
-3.63597e-06
-3.36099e-06
-3.52848e-06
-3.51801e-06
-3.39737e-06
-3.56231e-06
-3.45048e-06
-3.56118e-06
-3.463e-06
-3.44869e-06
-3.505e-06
-3.5017e-06
-3.33093e-06
-3.3663e-06
-3.37335e-06
-3.46904e-06
-3.67956e-06
-3.70391e-06
-3.44783e-06
-3.45853e-06
-3.3648e-06
-3.4668e-06
-3.48086e-06
-3.35649e-06
-3.45282e-06
-3.44935e-06
-3.35167e-06
-3.49965e-06
-3.51245e-06
-3.60328e-06
-3.60778e-06
-3.58111e-06
-3.53536e-06
-3.4301e-06
-3.54348e-06
-3.34552e-06
-3.45445e-06
-3.4373e-06
-3.4053e-06
-3.63392e-06
-3.60501e-06
-3.41653e-06
-3.52928e-06
-3.49736e-06
-3.39729e-06
-3.2553e-06
-3.28399e-06
-3.48893e-06
-3.38224e-06
-3.58525e-06
-3.44957e-06
-3.32707e-06
-3.33996e-06
-3.27143e-06
-3.27147e-06
-3.40095e-06
-3.40988e-06
-3.30723e-06
-3.40845e-06
-3.48565e-06
-3.53453e-06
-3.36777e-06
-3.40445e-06
-3.61901e-06
-3.73416e-06
-3.46267e-06
-3.32061e-06
-3.42721e-06
-3.39068e-06
-3.5852e-06
-3.54346e-06
-3.58684e-06
-3.46476e-06
-3.38533e-06
-3.48673e-06
-3.56471e-06
-3.53424e-06
-3.24257e-06
-3.3313e-06
-3.55373e-06
-3.58846e-06
-3.4434e-06
-3.47213e-06
-3.5533e-06
-3.51001e-06
-3.47155e-06
-3.13364e-06
-3.23184e-06
-3.54888e-06
-3.47478e-06
-3.62121e-06
-3.56375e-06
-3.50211e-06
-3.41968e-06
-3.26671e-06
-3.39777e-06
-3.42307e-06
-3.43655e-06
-3.43274e-06
-3.3562e-06
-3.44632e-06
-3.36274e-06
-3.42179e-06
-3.53099e-06
-3.39357e-06
-3.37473e-06
-3.4683e-06
-3.26002e-06
-3.45583e-06
-3.46839e-06
-3.43212e-06
-3.36966e-06
-3.38258e-06
-3.34918e-06
-3.38218e-06
-3.36541e-06
-3.38983e-06
-3.47985e-06
-3.49293e-06
-3.47885e-06
-3.65974e-06
-3.47171e-06
-3.37471e-06
-3.67869e-06
-3.6705e-06
-3.53688e-06
-3.55286e-06
-3.67568e-06
-3.54445e-06
-3.44399e-06
-3.52042e-06
-3.50183e-06
-3.58387e-06
-3.5201e-06
-3.59472e-06
-3.53495e-06
-3.41889e-06
-3.45695e-06
-3.51663e-06
-3.41094e-06
-3.34648e-06
-3.41768e-06
-3.45207e-06
-3.51084e-06
-3.39812e-06
-3.37721e-06
-3.45212e-06
-3.6139e-06
-3.55873e-06
-3.32235e-06
-3.63977e-06
-3.39534e-06
-3.38968e-06
-3.38267e-06
-3.13829e-06
-3.40845e-06
-3.27876e-06
-3.39341e-06
-3.31917e-06
-3.48386e-06
-3.61395e-06
-3.47552e-06
-3.47301e-06
-3.51164e-06
-3.46618e-06
-3.44013e-06
-3.2005e-06
-3.3678e-06
-3.47097e-06
-3.5133e-06
-3.66578e-06
-3.44462e-06
-3.54486e-06
-3.60709e-06
-3.45971e-06
-3.58866e-06
-3.4541e-06
-3.3409e-06
-3.33914e-06
-3.53112e-06
-3.42847e-06
-3.51277e-06
-3.45101e-06
-3.27006e-06
-3.623e-06
-3.41232e-06
-3.48824e-06
-3.61826e-06
-3.35256e-06
-3.63972e-06
-3.55764e-06
-3.49557e-06
-3.41778e-06
-3.35249e-06
-3.25151e-06
-3.41297e-06
-3.34991e-06
-3.27464e-06
-3.31486e-06
-3.48221e-06
-3.56554e-06
-3.60557e-06
-3.66728e-06
-3.64312e-06
-3.46736e-06
-3.68944e-06
-3.24619e-06
-3.24086e-06
-3.67005e-06
-3.4101e-06
-3.46895e-06
-3.40227e-06
-3.38146e-06
-3.64592e-06
-3.5501e-06
-3.40391e-06
-3.31056e-06
-3.38782e-06
-3.37115e-06
-3.52864e-06
-3.35846e-06
-3.37596e-06
-3.75884e-06
-3.60372e-06
-3.30907e-06
-3.30289e-06
-3.54931e-06
-3.46117e-06
-3.6147e-06
-3.51908e-06
-3.47167e-06
-3.4972e-06
-3.57633e-06
-3.37783e-06
-3.46739e-06
-3.31813e-06
-3.52731e-06
-3.35756e-06
-3.36724e-06
-3.25522e-06
-3.4477e-06
-3.527e-06
-3.51106e-06
-3.5396e-06
-3.49842e-06
-3.29443e-06
-3.23025e-06
-3.52305e-06
-3.38419e-06
-3.7096e-06
-3.63464e-06
-3.45756e-06
-3.38934e-06
-3.28846e-06
-3.39341e-06
-3.2306e-06
-3.4631e-06
-3.32421e-06
-3.60215e-06
-3.46824e-06
-3.45573e-06
-3.44869e-06
-3.46527e-06
-3.33266e-06
-3.5082e-06
-3.40948e-06
-3.48825e-06
-3.55402e-06
-3.43031e-06
-3.36291e-06
-3.56072e-06
-3.46366e-06
-3.46105e-06
-3.50658e-06
-3.39303e-06
-3.61055e-06
-3.43867e-06
-3.27064e-06
-3.45031e-06
-3.36148e-06
-3.33184e-06
-3.3783e-06
-3.34695e-06
-3.39136e-06
-3.58021e-06
-3.46664e-06
-3.57918e-06
-3.35699e-06
-3.4337e-06
-3.48894e-06
-3.45321e-06
-3.5151e-06
-3.26322e-06
-3.37056e-06
-3.48718e-06
-3.26679e-06
-3.45595e-06
-3.53796e-06
-3.43058e-06
-3.46688e-06
-3.56122e-06
-3.44357e-06
-3.65506e-06
-3.3067e-06
-3.63661e-06
-3.37489e-06
-3.47814e-06
-3.79898e-06
-3.6105e-06
-3.34584e-06
-3.45194e-06
-3.43311e-06
-3.49998e-06
-3.49358e-06
-3.42637e-06
-3.2415e-06
-3.32226e-06
-3.43561e-06
-3.43693e-06
-3.54218e-06
-3.50028e-06
-3.36979e-06
-3.37064e-06
-3.47478e-06
-3.49139e-06
-3.46371e-06
-3.48551e-06
-3.5066e-06
-3.37308e-06
-3.29027e-06
-3.42065e-06
-3.52405e-06
-3.39895e-06
-3.76228e-06
-3.46842e-06
-3.45716e-06
-3.44427e-06
-3.45785e-06
-3.37749e-06
-3.45956e-06
-3.63129e-06
-3.41181e-06
-3.41279e-06
-3.44981e-06
-3.43258e-06
-3.42778e-06
-3.47628e-06
-3.36466e-06
-3.56316e-06
-3.65386e-06
-3.53477e-06
-3.47408e-06
-3.43876e-06
-3.4631e-06
-3.33456e-06
-3.52166e-06
-3.49964e-06
-3.43203e-06
-3.2612e-06
-3.36863e-06
-3.57286e-06
-3.51743e-06
-3.164e-06
-3.3484e-06
-3.45881e-06
-3.44184e-06
-3.44084e-06
-3.38562e-06
-3.48176e-06
-3.34639e-06
-3.35769e-06
-3.25267e-06
-3.18988e-06
-3.40717e-06
-3.77098e-06
-3.6685e-06
-3.4415e-06
-3.60403e-06
-3.50439e-06
-3.5003e-06
-3.62409e-06
-3.49739e-06
-3.36272e-06
-3.40014e-06
-3.427e-06
-3.42609e-06
-3.38092e-06
-3.52394e-06
-3.40336e-06
-3.40424e-06
-3.38487e-06
-3.38475e-06
-3.28029e-06
-3.34618e-06
-3.32976e-06
-3.17304e-06
-3.46593e-06
-3.4708e-06
-3.4378e-06
-3.45161e-06
-3.42142e-06
-3.54485e-06
-3.5267e-06
-3.68073e-06
-3.38055e-06
-3.2703e-06
-3.42837e-06
-3.36906e-06
-3.27628e-06
-3.37801e-06
-3.34424e-06
-3.38804e-06
-3.42627e-06
-3.43072e-06
-3.41897e-06
-3.36969e-06
-3.492e-06
-3.50232e-06
-3.48579e-06
-3.33654e-06
-3.44323e-06
-3.44564e-06
-3.56403e-06
-3.54052e-06
-3.39025e-06
-3.46743e-06
-3.36529e-06
-3.43936e-06
-3.6071e-06
-3.32222e-06
-3.44641e-06
-3.41867e-06
-3.3801e-06
-3.23244e-06
-3.2743e-06
-3.51673e-06
-3.6065e-06
-3.43693e-06
-3.43742e-06
-3.48003e-06
-3.27099e-06
-3.52454e-06
-3.53279e-06
-3.23765e-06
-3.36026e-06
-3.41388e-06
-3.4984e-06
-3.49944e-06
-3.2202e-06
-3.44533e-06
-3.48263e-06
-3.44094e-06
-3.52166e-06
-3.28181e-06
-3.32587e-06
-3.50189e-06
-3.37822e-06
-3.4554e-06
-3.42018e-06
-3.48294e-06
-3.46749e-06
-3.33092e-06
-3.52818e-06
-3.46247e-06
-3.13385e-06
-3.22748e-06
-3.4375e-06
-3.47679e-06
-3.40939e-06
-3.29699e-06
-3.33823e-06
-3.50501e-06
-3.48806e-06
-3.48762e-06
-3.39229e-06
-3.31059e-06
-3.43472e-06
-3.32006e-06
-3.05426e-06
-3.46297e-06
-3.42892e-06
-3.38439e-06
-3.4125e-06
-3.37493e-06
-3.44206e-06
-3.27299e-06
-3.37302e-06
-3.37948e-06
-3.39699e-06
-3.42411e-06
-3.43942e-06
-3.35931e-06
-3.54887e-06
-3.43947e-06
-3.51101e-06
-3.5386e-06
-3.3472e-06
-3.36877e-06
-3.60634e-06
-3.29326e-06
-3.49778e-06
-3.58723e-06
-3.39336e-06
-3.29225e-06
-3.54898e-06
-3.49103e-06
-3.48167e-06
-3.4599e-06
-3.24585e-06
-3.21408e-06
-3.44912e-06
-3.40451e-06
-3.3475e-06
-3.31524e-06
-3.50984e-06
-3.41927e-06
-3.42961e-06
-3.67871e-06
-3.50508e-06
-3.50791e-06
-3.57407e-06
-3.64545e-06
-3.5558e-06
-3.29666e-06
-3.33061e-06
-3.51178e-06
-3.54069e-06
-3.54778e-06
-3.202e-06
-3.32372e-06
-3.47326e-06
-3.44019e-06
-3.34891e-06
-3.4079e-06
-3.50877e-06
-3.48788e-06
-3.42424e-06
-3.34603e-06
-3.23773e-06
-3.48082e-06
-3.49959e-06
-3.46413e-06
-3.07928e-06
-3.29735e-06
-3.67612e-06
-3.38038e-06
-3.68815e-06
-3.46799e-06
-3.56958e-06
-3.42449e-06
-3.56078e-06
-3.32587e-06
-3.18632e-06
-3.38218e-06
-3.33636e-06
-3.41093e-06
-3.30017e-06
-3.46611e-06
-3.43719e-06
-3.355e-06
-3.549e-06
-3.56254e-06
-3.50711e-06
-3.27534e-06
-3.28635e-06
-3.44801e-06
-3.75439e-06
-3.58953e-06
-3.44683e-06
-3.51554e-06
-3.31401e-06
-3.341e-06
-3.30774e-06
-3.41886e-06
-3.59009e-06
-3.50094e-06
-3.47035e-06
-3.3887e-06
-3.52569e-06
-3.74769e-06
-3.49951e-06
-3.38792e-06
-3.37256e-06
-3.56107e-06
-3.51986e-06
-3.42164e-06
-3.41683e-06
-3.57638e-06
-3.4793e-06
-3.45537e-06
-3.4385e-06
-3.38197e-06
-3.57318e-06
-3.64088e-06
-3.43628e-06
-3.51333e-06
-3.30461e-06
-3.46469e-06
-3.39813e-06
-3.30843e-06
-3.37781e-06
-3.3862e-06
-3.58588e-06
-3.597e-06
-3.47915e-06
-3.49298e-06
-3.46994e-06
-3.35964e-06
-3.50186e-06
-3.41065e-06
-3.49246e-06
-3.45963e-06
-3.50727e-06
-3.50462e-06
-3.33427e-06
-3.1623e-06
-3.33967e-06
-3.14296e-06
-3.36095e-06
-3.52197e-06
-3.78093e-06
-3.62571e-06
-3.51377e-06
-3.39599e-06
-3.42706e-06
-3.4285e-06
-3.49555e-06
-3.40797e-06
-3.40733e-06
-3.43812e-06
-3.52625e-06
-3.54708e-06
-3.67933e-06
-3.57205e-06
-3.45538e-06
-3.45332e-06
-3.50251e-06
-3.29607e-06
-3.46125e-06
-3.57327e-06
-3.38323e-06
-3.37377e-06
-3.31601e-06
-3.54522e-06
-3.34474e-06
-3.55793e-06
-3.39809e-06
-3.65129e-06
-3.52008e-06
-3.38253e-06
-3.38218e-06
-3.31385e-06
-3.35675e-06
-3.37724e-06
-3.72039e-06
-3.38566e-06
-3.467e-06
-3.41855e-06
-3.47033e-06
-3.36366e-06
-3.55406e-06
-3.21635e-06
-3.37513e-06
-3.36209e-06
-3.56205e-06
-3.49619e-06
-3.50062e-06
-3.40211e-06
-3.61634e-06
-3.43463e-06
-3.33298e-06
-3.41267e-06
-3.71163e-06
-3.59197e-06
-3.38919e-06
-3.54174e-06
-3.58083e-06
-3.47485e-06
-3.61065e-06
-3.574e-06
-3.41644e-06
-3.31187e-06
-3.30431e-06
-3.5285e-06
-3.57564e-06
-3.59574e-06
-3.66541e-06
-3.51151e-06
-3.28196e-06
-3.20742e-06
-3.50513e-06
-3.59127e-06
-3.59061e-06
-3.49638e-06
-3.34514e-06
-3.27765e-06
-3.44448e-06
-3.68084e-06
-3.59536e-06
-3.54674e-06
-3.3879e-06
-3.56375e-06
-3.38491e-06
-3.2272e-06
-3.3853e-06
-3.29772e-06
-3.41421e-06
-3.45255e-06
-3.40166e-06
-3.343e-06
-3.38737e-06
-3.59362e-06
-3.4564e-06
-3.44276e-06
-3.34901e-06
-3.37779e-06
-3.42932e-06
-3.48807e-06
-3.47995e-06
-3.65482e-06
-3.48131e-06
-3.61604e-06
-3.605e-06
-3.48793e-06
-3.30491e-06
-3.30914e-06
-3.47722e-06
-3.40476e-06
-3.29337e-06
-3.47842e-06
-3.32776e-06
-3.47636e-06
-3.50036e-06
-3.59199e-06
-3.31847e-06
-3.0937e-06
-3.26135e-06
-3.33292e-06
-3.60638e-06
-3.5002e-06
-3.52497e-06
-3.42756e-06
-3.52397e-06
-3.50056e-06
-3.47486e-06
-3.18568e-06
-3.36444e-06
-3.32284e-06
-3.61156e-06
-3.35675e-06
-3.45429e-06
-3.55551e-06
-3.21285e-06
-3.46897e-06
-3.30022e-06
-3.2931e-06
-3.32879e-06
-3.52101e-06
-3.41645e-06
-3.58802e-06
-3.3071e-06
-3.33163e-06
-3.44727e-06
-3.70892e-06
-3.30355e-06
-3.24053e-06
-3.33905e-06
-3.41121e-06
-3.49294e-06
-3.23809e-06
-3.21862e-06
-3.60504e-06
-3.49824e-06
-3.36092e-06
-3.58213e-06
-3.73926e-06
-3.48978e-06
-3.42288e-06
-3.31095e-06
-3.31504e-06
-3.3411e-06
-3.24746e-06
-3.24279e-06
-3.37162e-06
-3.66344e-06
-3.66536e-06
-3.579e-06
-3.577e-06
-3.68965e-06
-3.39513e-06
-3.41748e-06
-3.46537e-06
-3.55518e-06
-3.54693e-06
-3.37389e-06
-3.3219e-06
-3.4514e-06
-3.47037e-06
-3.45234e-06
-3.42254e-06
-3.5428e-06
-3.5008e-06
-3.31687e-06
-3.47217e-06
-3.38881e-06
-3.57231e-06
-3.42753e-06
-3.41931e-06
-3.33963e-06
-3.38655e-06
-3.53211e-06
-3.44151e-06
-3.38795e-06
-3.43395e-06
-3.45707e-06
-3.34685e-06
-3.45376e-06
-3.34302e-06
-3.32387e-06
-3.52841e-06
-3.43376e-06
-3.5325e-06
-3.3792e-06
-3.48997e-06
-3.22973e-06
-3.51836e-06
-3.49473e-06
-3.35311e-06
-3.70984e-06
-3.54315e-06
-3.50539e-06
-3.53964e-06
-3.35161e-06
-3.20468e-06
-3.35769e-06
-3.4225e-06
-3.24973e-06
-3.35873e-06
-3.40875e-06
-3.32872e-06
-3.57155e-06
-3.57477e-06
-3.44568e-06
-3.41321e-06
-3.2797e-06
-3.31297e-06
-3.2928e-06
-3.46574e-06
-3.55551e-06
-3.5433e-06
-3.58321e-06
-3.47141e-06
-3.36522e-06
-3.38778e-06
-3.4589e-06
-3.27071e-06
-3.64157e-06
-3.62583e-06
-3.39116e-06
-3.42675e-06
-3.3391e-06
-3.47783e-06
-3.5519e-06
-3.3712e-06
-3.32279e-06
-3.44291e-06
-3.56768e-06
-3.51931e-06
-3.34556e-06
-3.49079e-06
-3.25887e-06
-3.56229e-06
-3.41626e-06
-3.36359e-06
-3.78589e-06
-3.52975e-06
-3.37689e-06
-3.21457e-06
-3.42782e-06
-3.63715e-06
-3.45735e-06
-3.62061e-06
-3.54743e-06
-3.5492e-06
-3.50082e-06
-3.69774e-06
-3.57122e-06
-3.47453e-06
-3.43916e-06
-3.50929e-06
-3.36184e-06
-3.30681e-06
-3.39618e-06
-3.14563e-06
-3.23384e-06
-3.25612e-06
-3.52103e-06
-3.41103e-06
-3.40237e-06
-3.53546e-06
-3.37069e-06
-3.49705e-06
-3.36911e-06
-3.39051e-06
-3.38656e-06
-3.49143e-06
-3.26604e-06
-3.34309e-06
-3.3905e-06
-3.2473e-06
-3.24339e-06
-3.35558e-06
-3.50845e-06
-3.47191e-06
-3.34942e-06
-3.22388e-06
-3.46739e-06
-3.43213e-06
-3.53608e-06
-3.49366e-06
-3.54031e-06
-3.44787e-06
-3.56421e-06
-3.51155e-06
-3.62435e-06
-3.43439e-06
-3.3663e-06
-3.67037e-06
-3.4262e-06
-3.38392e-06
-3.57665e-06
-3.4995e-06
-3.45423e-06
-3.53121e-06
-3.61782e-06
-3.45847e-06
-3.35559e-06
-3.31391e-06
-3.42584e-06
-3.56105e-06
-3.37106e-06
-3.30696e-06
-3.4792e-06
-3.49769e-06
-3.47156e-06
-3.29871e-06
-3.22884e-06
-3.58321e-06
-3.48216e-06
-3.42011e-06
-3.50847e-06
-3.23909e-06
-3.23158e-06
-3.36829e-06
-3.42075e-06
-3.59536e-06
-3.62943e-06
-3.59969e-06
-3.61836e-06
-3.44476e-06
-3.44469e-06
-3.4029e-06
-3.40274e-06
-3.52418e-06
-3.44866e-06
-3.43895e-06
-3.25075e-06
-3.20999e-06
-3.5504e-06
-3.41294e-06
-3.43964e-06
-3.38878e-06
-3.37868e-06
-3.56676e-06
-3.25066e-06
-3.30508e-06
-3.25233e-06
-3.37991e-06
-3.40892e-06
-3.35898e-06
-3.42094e-06
-3.58295e-06
-3.53621e-06
-3.3126e-06
-3.3885e-06
-3.3604e-06
-3.43139e-06
-3.33066e-06
-3.43977e-06
-3.218e-06
-3.44971e-06
-3.63723e-06
-3.43076e-06
-3.46508e-06
-3.55752e-06
-3.61424e-06
-3.52012e-06
-3.27582e-06
-3.36849e-06
-3.30852e-06
-3.41699e-06
-3.44494e-06
-3.48926e-06
-3.49169e-06
-3.46494e-06
-3.45655e-06
-3.55956e-06
-3.33831e-06
-3.35964e-06
-3.32537e-06
-3.43116e-06
-3.37095e-06
-3.38373e-06
-3.38746e-06
-3.63068e-06
-3.44744e-06
-3.41122e-06
-3.53901e-06
-3.29898e-06
-3.51452e-06
-3.46824e-06
-3.54593e-06
-3.27007e-06
-3.32238e-06
-3.55209e-06
-3.45034e-06
-3.43072e-06
-3.3967e-06
-3.35342e-06
-3.43542e-06
-3.4979e-06
-3.44438e-06
-3.39492e-06
-3.36495e-06
-3.67715e-06
-3.46223e-06
-3.28438e-06
-3.37189e-06
-3.50137e-06
-3.36365e-06
-3.52611e-06
-3.51436e-06
-3.29344e-06
-3.27515e-06
-3.555e-06
-3.3811e-06
-3.42011e-06
-3.50787e-06
-3.46193e-06
-3.49469e-06
-3.53983e-06
-3.4115e-06
-3.29468e-06
-3.50091e-06
-3.49606e-06
-3.67209e-06
-3.57356e-06
-3.37715e-06
-3.39653e-06
-3.50151e-06
-3.44445e-06
-3.36634e-06
-3.3484e-06
-3.46888e-06
-3.48361e-06
-3.52836e-06
-3.44494e-06
-3.57936e-06
-3.63355e-06
-3.34851e-06
-3.55835e-06
-3.5128e-06
-3.59695e-06
-3.57629e-06
-3.34093e-06
-3.39603e-06
-3.4551e-06
-3.36479e-06
-3.40284e-06
-3.70228e-06
-3.27091e-06
-3.56709e-06
-3.62217e-06
-3.43462e-06
-3.44486e-06
-3.48765e-06
-3.42937e-06
-3.56326e-06
-3.3676e-06
-3.34034e-06
-3.39023e-06
-3.38959e-06
-3.43854e-06
-3.39692e-06
-3.46093e-06
-3.52757e-06
-3.42935e-06
-3.43472e-06
-3.33117e-06
-3.66782e-06
-3.52361e-06
-3.52531e-06
-3.60177e-06
-3.60351e-06
-3.67067e-06
-3.5361e-06
-3.29481e-06
-3.49402e-06
-3.30819e-06
-3.62381e-06
-3.43059e-06
-3.47526e-06
-3.47616e-06
-3.57032e-06
-3.57454e-06
-3.52633e-06
-3.30425e-06
-3.48577e-06
-3.42152e-06
-3.43535e-06
-3.45731e-06
-3.21887e-06
-3.42052e-06
-3.59945e-06
-3.5265e-06
-3.33166e-06
-3.42922e-06
-3.55257e-06
-3.51425e-06
-3.75233e-06
-3.66116e-06
-3.35573e-06
-3.3474e-06
-3.49015e-06
-3.50998e-06
-3.27881e-06
-3.29247e-06
-3.37515e-06
-3.50917e-06
-3.42977e-06
-3.30474e-06
-3.2416e-06
-3.29006e-06
-3.45466e-06
-3.33972e-06
-3.46193e-06
-3.54837e-06
-3.32508e-06
-3.53073e-06
-3.44875e-06
-3.47389e-06
-3.37003e-06
-3.38198e-06
-3.41614e-06
-3.67424e-06
-3.5283e-06
-3.54871e-06
-3.50963e-06
-3.27693e-06
-3.3707e-06
-3.3412e-06
-3.4216e-06
-3.52142e-06
-3.37597e-06
-3.64774e-06
-3.34459e-06
-3.59254e-06
-3.68997e-06
-3.57793e-06
-3.43906e-06
-3.53787e-06
-3.43886e-06
-3.43274e-06
-3.44225e-06
-3.28797e-06
-3.38621e-06
-3.36874e-06
-3.37647e-06
-3.5929e-06
-3.43437e-06
-3.35468e-06
-3.34954e-06
-3.59324e-06
-3.48222e-06
-3.50309e-06
-3.61589e-06
-3.48562e-06
-3.47809e-06
-3.45066e-06
-3.36549e-06
-3.5018e-06
-3.47285e-06
-3.24237e-06
-3.32351e-06
-3.60684e-06
-3.30821e-06
-3.39296e-06
-3.48396e-06
-3.52151e-06
-3.52407e-06
-3.50762e-06
-3.63793e-06
-3.57607e-06
-3.55111e-06
-3.28391e-06
-3.3149e-06
-3.44795e-06
-3.48544e-06
-3.66343e-06
-3.5799e-06
-3.53095e-06
-3.47772e-06
-3.4402e-06
-3.37421e-06
-3.53332e-06
-3.52899e-06
-3.25359e-06
-3.47248e-06
-3.45696e-06
-3.50136e-06
-3.28983e-06
-3.28724e-06
-3.45958e-06
-3.50669e-06
-3.598e-06
-3.60144e-06
-3.60776e-06
-3.54753e-06
-3.39895e-06
-3.57219e-06
-3.46054e-06
-3.39166e-06
-3.16172e-06
-3.30179e-06
-3.31555e-06
-3.34741e-06
-3.50662e-06
-3.50799e-06
-3.30365e-06
-3.40593e-06
-3.44681e-06
-3.40754e-06
-3.51327e-06
-3.42814e-06
-3.32508e-06
-3.41787e-06
-3.41699e-06
-3.51798e-06
-3.46167e-06
-3.23076e-06
-3.40724e-06
-3.33404e-06
-3.43291e-06
-3.4126e-06
-3.4427e-06
-3.42506e-06
-3.49714e-06
-3.40189e-06
-3.62981e-06
-3.30996e-06
-3.44051e-06
-3.43048e-06
-3.39137e-06
-3.31436e-06
-3.21533e-06
-3.4915e-06
-3.38441e-06
-3.51718e-06
-3.33199e-06
-3.53529e-06
-3.35388e-06
-3.54084e-06
-3.52822e-06
-3.47995e-06
-3.46117e-06
-3.32861e-06
-3.55089e-06
-3.46559e-06
-3.41011e-06
-3.72693e-06
-3.48588e-06
-3.54444e-06
-3.71853e-06
-3.59533e-06
-3.55089e-06
-3.40009e-06
-3.46022e-06
-3.38195e-06
-3.555e-06
-3.47969e-06
-3.54069e-06
-3.46236e-06
-3.67574e-06
-3.5167e-06
-3.42223e-06
-3.51564e-06
-3.63524e-06
-3.47892e-06
-3.40595e-06
-3.47608e-06
-3.52365e-06
-3.33417e-06
-3.66388e-06
-3.36594e-06
-3.42968e-06
-3.59971e-06
-3.5138e-06
-3.51863e-06
-3.32436e-06
-3.28383e-06
-3.29802e-06
-3.50842e-06
-3.32451e-06
-3.64315e-06
-3.66502e-06
-3.34408e-06
-3.64416e-06
-3.60496e-06
-3.43327e-06
-3.37075e-06
-3.30122e-06
-3.47082e-06
-3.39851e-06
-3.68411e-06
-3.5074e-06
-3.53463e-06
-3.41144e-06
-3.40973e-06
-3.59503e-06
-3.46782e-06
-3.59214e-06
-3.31084e-06
-3.35193e-06
-3.23817e-06
-3.44069e-06
-3.30771e-06
-3.35681e-06
-3.492e-06
-3.4039e-06
-3.37989e-06
-3.52267e-06
-3.70256e-06
-3.60166e-06
-3.41699e-06
-3.35805e-06
-3.55496e-06
-3.22478e-06
-3.4176e-06
-3.47811e-06
-3.39909e-06
-3.6226e-06
-3.66913e-06
-3.55515e-06
-3.56606e-06
-3.52539e-06
-3.51688e-06
-3.42296e-06
-3.51938e-06
-3.23742e-06
-3.41829e-06
-3.27033e-06
-3.3513e-06
-3.47692e-06
-3.50017e-06
-3.53528e-06
-3.57065e-06
-3.58345e-06
-3.33095e-06
-3.54489e-06
-3.46864e-06
-3.43671e-06
-3.38619e-06
-3.6611e-06
-3.65808e-06
-3.58697e-06
-3.44218e-06
-3.52549e-06
-3.46985e-06
-3.45583e-06
-3.37772e-06
-3.40023e-06
-3.66008e-06
-3.459e-06
-3.24817e-06
-3.42552e-06
-3.47892e-06
-3.55609e-06
-3.46232e-06
-3.30851e-06
-3.6111e-06
-3.54298e-06
-3.59269e-06
-3.4231e-06
-3.51723e-06
-3.41497e-06
-3.61493e-06
-3.64823e-06
-3.5001e-06
-3.59854e-06
-3.56396e-06
-3.45213e-06
-3.43313e-06
-3.59195e-06
-3.56038e-06
-3.56901e-06
-3.412e-06
-3.49539e-06
-3.31498e-06