# vtk DataFile Version 2.0
3D Surface
ASCII
DATASET UNSTRUCTURED_GRID
POINTS 16239 float
-1.125e-05 -1.2e-05 -8.25051e-06 
-1.12645e-05 -1.2e-05 -8.25e-06 
-1.125e-05 -1.2029e-05 -8.25e-06 
-1.12234e-05 -1.2e-05 -8.25e-06 
2.5e-07 -1.225e-05 -8.25028e-06 
2.5e-07 -1.22299e-05 -8.25e-06 
2.38507e-07 -1.225e-05 -8.25e-06 
2.65568e-07 -1.225e-05 -8.25e-06 
5e-06 -1.225e-05 -8.25036e-06 
5e-06 -1.22381e-05 -8.25e-06 
4.98485e-06 -1.225e-05 -8.25e-06 
5.01702e-06 -1.225e-05 -8.25e-06 
6.75e-06 -1.2e-05 -8.25011e-06 
6.74216e-06 -1.2e-05 -8.25e-06 
6.75e-06 -1.20115e-05 -8.25e-06 
6.75595e-06 -1.2e-05 -8.25e-06 
1.175e-05 -1.2e-05 -8.25154e-06 
1.16565e-05 -1.2e-05 -8.25e-06 
1.175e-05 -1.2247e-05 -8.25e-06 
1.17895e-05 -1.2e-05 -8.25e-06 
-1.125e-05 -1.19405e-05 -8.25e-06 
-2e-06 -1.175e-05 -8.25278e-06 
-2.11739e-06 -1.175e-05 -8.25e-06 
-2e-06 -1.1838e-05 -8.25e-06 
-1.88297e-06 -1.175e-05 -8.25e-06 
6.75e-06 -1.19963e-05 -8.25e-06 
8.25e-06 -1.175e-05 -8.25076e-06 
8.21561e-06 -1.175e-05 -8.25e-06 
8.25e-06 -1.18334e-05 -8.25e-06 
8.26988e-06 -1.175e-05 -8.25e-06 
1.175e-05 -1.19254e-05 -8.25e-06 
-1.2e-05 -1.15e-05 -8.25043e-06 
-1.20215e-05 -1.15e-05 -8.25e-06 
-1.2e-05 -1.15114e-05 -8.25e-06 
-1.19842e-05 -1.15e-05 -8.25e-06 
-2e-06 -1.15e-05 -8.2529e-06 
-2.12161e-06 -1.15e-05 -8.25e-06 
-1.81592e-06 -1.15e-05 -8.25e-06 
8.25e-06 -1.15e-05 -8.25449e-06 
8.11114e-06 -1.15e-05 -8.25e-06 
8.3922e-06 -1.15e-05 -8.25e-06 
9e-06 -1.15e-05 -8.25108e-06 
8.96699e-06 -1.15e-05 -8.25e-06 
9e-06 -1.15379e-05 -8.25e-06 
9.06143e-06 -1.15e-05 -8.25e-06 
-1.2e-05 -1.125e-05 -8.25209e-06 
-1.20996e-05 -1.125e-05 -8.25e-06 
-1.19465e-05 -1.125e-05 -8.25e-06 
-2e-06 -1.1394e-05 -8.25e-06 
4.75e-06 -1.125e-05 -8.25127e-06 
4.67272e-06 -1.125e-05 -8.25e-06 
4.75e-06 -1.13123e-05 -8.25e-06 
5e-06 -1.12688e-05 -8.25e-06 
5e-06 -1.125e-05 -8.25033e-06 
5.01605e-06 -1.125e-05 -8.25e-06 
6e-06 -1.125e-05 -8.25412e-06 
5.82144e-06 -1.125e-05 -8.25e-06 
6e-06 -1.14598e-05 -8.25e-06 
6.10614e-06 -1.125e-05 -8.25e-06 
8.25e-06 -1.125e-05 -8.25122e-06 
8.21381e-06 -1.125e-05 -8.25e-06 
8.30522e-06 -1.125e-05 -8.25e-06 
9e-06 -1.14321e-05 -8.25e-06 
9.25e-06 -1.13131e-05 -8.25e-06 
9.25e-06 -1.125e-05 -8.25112e-06 
9.18035e-06 -1.125e-05 -8.25e-06 
9.31646e-06 -1.125e-05 -8.25e-06 
-1.2e-05 -1.11654e-05 -8.25e-06 
5e-07 -1.1e-05 -8.25064e-06 
4.31915e-07 -1.1e-05 -8.25e-06 
5e-07 -1.10238e-05 -8.25e-06 
5.3238e-07 -1.1e-05 -8.25e-06 
4.5e-06 -1.1e-05 -8.25021e-06 
4.49106e-06 -1.1e-05 -8.25e-06 
4.5e-06 -1.10176e-05 -8.25e-06 
4.75e-06 -1.10442e-05 -8.25e-06 
4.60997e-06 -1.1e-05 -8.25e-06 
5e-06 -1.12154e-05 -8.25e-06 
6e-06 -1.10856e-05 -8.25e-06 
8.25e-06 -1.11983e-05 -8.25e-06 
9.25e-06 -1.12045e-05 -8.25e-06 
-5e-06 -1.075e-05 -8.25133e-06 
-5.04383e-06 -1.075e-05 -8.25e-06 
-5e-06 -1.08201e-05 -8.25e-06 
-4.9393e-06 -1.075e-05 -8.25e-06 
-4.5e-06 -1.075e-05 -8.25097e-06 
-4.54739e-06 -1.075e-05 -8.25e-06 
-4.5e-06 -1.09072e-05 -8.25e-06 
-4.41203e-06 -1.075e-05 -8.25e-06 
5e-07 -1.09782e-05 -8.25e-06 
4.5e-06 -1.09664e-05 -8.25e-06 
-1.1e-05 -1.05e-05 -8.25151e-06 
-1.1063e-05 -1.05e-05 -8.25e-06 
-1.1e-05 -1.0583e-05 -8.25e-06 
-1.075e-05 -1.05443e-05 -8.25e-06 
-1.075e-05 -1.05e-05 -8.25025e-06 
-1.07349e-05 -1.05e-05 -8.25e-06 
-9e-06 -1.05e-05 -8.25006e-06 
-9.00203e-06 -1.05e-05 -8.25e-06 
-9e-06 -1.05045e-05 -8.25e-06 
-8.75e-06 -1.05909e-05 -8.25e-06 
-8.75e-06 -1.05e-05 -8.25293e-06 
-8.66547e-06 -1.05e-05 -8.25e-06 
-5e-06 -1.07004e-05 -8.25e-06 
-4.5e-06 -1.07297e-05 -8.25e-06 
-4e-06 -1.05e-05 -8.25123e-06 
-4.04587e-06 -1.05e-05 -8.25e-06 
-4e-06 -1.05861e-05 -8.25e-06 
-3.94407e-06 -1.05e-05 -8.25e-06 
7.5e-07 -1.05e-05 -8.25293e-06 
6.34547e-07 -1.05e-05 -8.25e-06 
7.5e-07 -1.05994e-05 -8.25e-06 
8.38396e-07 -1.05e-05 -8.25e-06 
1.125e-05 -1.05e-05 -8.25079e-06 
1.12224e-05 -1.05e-05 -8.25e-06 
1.125e-05 -1.07002e-05 -8.25e-06 
1.15e-05 -1.07334e-05 -8.25e-06 
1.15e-05 -1.05e-05 -8.25039e-06 
1.15322e-05 -1.05e-05 -8.25e-06 
-1.1e-05 -1.04446e-05 -8.25e-06 
-1.075e-05 -1.04933e-05 -8.25e-06 
-9e-06 -1.04975e-05 -8.25e-06 
-8.75e-06 -1.04061e-05 -8.25e-06 
-5.25e-06 -1.025e-05 -8.25027e-06 
-5.26114e-06 -1.025e-05 -8.25e-06 
-5.25e-06 -1.02651e-05 -8.25e-06 
-5e-06 -1.03141e-05 -8.25e-06 
-5e-06 -1.025e-05 -8.25186e-06 
-4.91813e-06 -1.025e-05 -8.25e-06 
-4e-06 -1.025e-05 -8.25294e-06 
-4.09825e-06 -1.025e-05 -8.25e-06 
-3.91042e-06 -1.025e-05 -8.25e-06 
-5e-07 -1.025e-05 -8.25013e-06 
-5.0842e-07 -1.025e-05 -8.25e-06 
-5e-07 -1.02608e-05 -8.25e-06 
-4.87458e-07 -1.025e-05 -8.25e-06 
0 -1.025e-05 -8.25084e-06 
-6.19813e-08 -1.025e-05 -8.25e-06 
0 -1.03032e-05 -8.25e-06 
3.88818e-08 -1.025e-05 -8.25e-06 
7.5e-07 -1.04071e-05 -8.25e-06 
4.25e-06 -1.025e-05 -8.25016e-06 
4.24346e-06 -1.025e-05 -8.25e-06 
4.25e-06 -1.02554e-05 -8.25e-06 
4.25588e-06 -1.025e-05 -8.25e-06 
4.75e-06 -1.025e-05 -8.25225e-06 
4.68723e-06 -1.025e-05 -8.25e-06 
4.75e-06 -1.0316e-05 -8.25e-06 
4.81768e-06 -1.025e-05 -8.25e-06 
9.75e-06 -1.025e-05 -8.25122e-06 
9.69544e-06 -1.025e-05 -8.25e-06 
9.75e-06 -1.02925e-05 -8.25e-06 
9.82563e-06 -1.025e-05 -8.25e-06 
1.125e-05 -1.0465e-05 -8.25e-06 
1.15e-05 -1.04868e-05 -8.25e-06 
-5.5e-06 -1e-05 -8.2506e-06 
-5.51561e-06 -1e-05 -8.25e-06 
-5.5e-06 -1.00233e-05 -8.25e-06 
-5.25e-06 -1.01772e-05 -8.25e-06 
-5.38101e-06 -1e-05 -8.25e-06 
-5e-06 -1e-05 -8.25219e-06 
-5.19211e-06 -1e-05 -8.25e-06 
-4.75e-06 -1.00195e-05 -8.25e-06 
-4.75e-06 -1e-05 -8.25032e-06 
-4.73419e-06 -1e-05 -8.25e-06 
-4e-06 -1e-05 -8.25042e-06 
-4.0382e-06 -1e-05 -8.25e-06 
-3.75e-06 -1.00306e-05 -8.25e-06 
-3.75e-06 -1e-05 -8.25073e-06 
-3.72636e-06 -1e-05 -8.25e-06 
-1.75e-06 -1e-05 -8.2516e-06 
-1.89521e-06 -1e-05 -8.25e-06 
-1.75e-06 -1.01311e-05 -8.25e-06 
-1.6764e-06 -1e-05 -8.25e-06 
-5e-07 -1.02348e-05 -8.25e-06 
0 -1.01487e-05 -8.25e-06 
4.25e-06 -1.01906e-05 -8.25e-06 
4.75e-06 -1.01e-05 -8.25e-06 
9.75e-06 -1.01672e-05 -8.25e-06 
-8.75e-06 -9.75e-06 -8.25009e-06 
-8.75746e-06 -9.75e-06 -8.25e-06 
-8.75e-06 -9.75465e-06 -8.25e-06 
-8.74609e-06 -9.75e-06 -8.25e-06 
-5.5e-06 -9.96939e-06 -8.25e-06 
-5e-06 -9.91692e-06 -8.25e-06 
-4.75e-06 -9.75e-06 -8.2525e-06 
-4.84069e-06 -9.75e-06 -8.25e-06 
-4.65729e-06 -9.75e-06 -8.25e-06 
-4e-06 -9.97889e-06 -8.25e-06 
-3.75e-06 -9.98188e-06 -8.25e-06 
-2e-06 -9.75e-06 -8.25171e-06 
-2.03772e-06 -9.75e-06 -8.25e-06 
-2e-06 -9.89913e-06 -8.25e-06 
-1.75e-06 -9.9433e-06 -8.25e-06 
-1.94041e-06 -9.75e-06 -8.25e-06 
3.75e-06 -9.75e-06 -8.25545e-06 
3.586e-06 -9.75e-06 -8.25e-06 
3.75e-06 -9.90363e-06 -8.25e-06 
3.91357e-06 -9.75e-06 -8.25e-06 
-8.75e-06 -9.74389e-06 -8.25e-06 
-7e-06 -9.5e-06 -8.25018e-06 
-7.00747e-06 -9.5e-06 -8.25e-06 
-7e-06 -9.51935e-06 -8.25e-06 
-6.99112e-06 -9.5e-06 -8.25e-06 
-4.75e-06 -9.65735e-06 -8.25e-06 
-2e-06 -9.70828e-06 -8.25e-06 
7.5e-07 -9.5e-06 -8.25202e-06 
6.48678e-07 -9.5e-06 -8.25e-06 
7.5e-07 -9.62614e-06 -8.25e-06 
8.34306e-07 -9.5e-06 -8.25e-06 
2.75e-06 -9.5e-06 -8.25079e-06 
2.7102e-06 -9.5e-06 -8.25e-06 
2.75e-06 -9.64348e-06 -8.25e-06 
2.83114e-06 -9.5e-06 -8.25e-06 
3.75e-06 -9.53035e-06 -8.25e-06 
6e-06 -9.5e-06 -8.25034e-06 
5.98597e-06 -9.5e-06 -8.25e-06 
6e-06 -9.5248e-06 -8.25e-06 
6.02054e-06 -9.5e-06 -8.25e-06 
8.75e-06 -9.5e-06 -8.25076e-06 
8.69275e-06 -9.5e-06 -8.25e-06 
8.75e-06 -9.53427e-06 -8.25e-06 
8.96531e-06 -9.5e-06 -8.25e-06 
-1.225e-05 -9.34601e-06 -8.25e-06 
-1.21177e-05 -9.25e-06 -8.25e-06 
-1.225e-05 -9.25e-06 -8.25376e-06 
-7e-06 -9.49294e-06 -8.25e-06 
-6e-06 -9.25e-06 -8.25008e-06 
-6.00529e-06 -9.25e-06 -8.25e-06 
-6e-06 -9.25303e-06 -8.25e-06 
-5.99608e-06 -9.25e-06 -8.25e-06 
7.5e-07 -9.38945e-06 -8.25e-06 
2.75e-06 -9.47927e-06 -8.25e-06 
6e-06 -9.48616e-06 -8.25e-06 
7.25e-06 -9.25e-06 -8.25167e-06 
7.18641e-06 -9.25e-06 -8.25e-06 
7.25e-06 -9.33209e-06 -8.25e-06 
7.36818e-06 -9.25e-06 -8.25e-06 
8.75e-06 -9.45295e-06 -8.25e-06 
1.025e-05 -9.25e-06 -8.25019e-06 
1.02286e-05 -9.25e-06 -8.25e-06 
1.025e-05 -9.25541e-06 -8.25e-06 
1.02575e-05 -9.25e-06 -8.25e-06 
1.225e-05 -9.25e-06 -8.25376e-06 
1.21178e-05 -9.25e-06 -8.25e-06 
1.225e-05 -9.34601e-06 -8.25e-06 
-1.225e-05 -9.13629e-06 -8.25e-06 
-1.15e-05 -9e-06 -8.25232e-06 
-1.16285e-05 -9e-06 -8.25e-06 
-1.15e-05 -9.0916e-06 -8.25e-06 
-1.1385e-05 -9e-06 -8.25e-06 
-6e-06 -9e-06 -8.2506e-06 
-6.0186e-06 -9e-06 -8.25e-06 
-5.96975e-06 -9e-06 -8.25e-06 
4.5e-06 -9e-06 -8.25092e-06 
4.461e-06 -9e-06 -8.25e-06 
4.5e-06 -9.02368e-06 -8.25e-06 
4.52781e-06 -9e-06 -8.25e-06 
6e-06 -9e-06 -8.25003e-06 
5.98661e-06 -9e-06 -8.25e-06 
6e-06 -9.00131e-06 -8.25e-06 
6.00121e-06 -9e-06 -8.25e-06 
7.25e-06 -9.18863e-06 -8.25e-06 
1.025e-05 -9.24203e-06 -8.25e-06 
1.225e-05 -9.13629e-06 -8.25e-06 
-1.15e-05 -8.95483e-06 -8.25e-06 
-7.25e-06 -8.75e-06 -8.25005e-06 
-7.25219e-06 -8.75e-06 -8.25e-06 
-7.25e-06 -8.75224e-06 -8.25e-06 
-7.24876e-06 -8.75e-06 -8.25e-06 
-6e-06 -8.97932e-06 -8.25e-06 
-2e-06 -8.75e-06 -8.25257e-06 
-2.0968e-06 -8.75e-06 -8.25e-06 
-2e-06 -8.81134e-06 -8.25e-06 
-1.87083e-06 -8.75e-06 -8.25e-06 
4e-06 -8.75e-06 -8.25198e-06 
3.94469e-06 -8.75e-06 -8.25e-06 
4e-06 -8.84339e-06 -8.25e-06 
4.04673e-06 -8.75e-06 -8.25e-06 
4.5e-06 -8.95094e-06 -8.25e-06 
6e-06 -8.97675e-06 -8.25e-06 
1.075e-05 -8.75e-06 -8.25141e-06 
1.06492e-05 -8.75e-06 -8.25e-06 
1.075e-05 -8.80828e-06 -8.25e-06 
1.08036e-05 -8.75e-06 -8.25e-06 
1.2e-05 -8.75e-06 -8.25036e-06 
1.19759e-05 -8.75e-06 -8.25e-06 
1.2e-05 -8.76468e-06 -8.25e-06 
1.21664e-05 -8.75e-06 -8.25e-06 
-7.25e-06 -8.7478e-06 -8.25e-06 
-2e-06 -8.5e-06 -8.25301e-06 
-2.12594e-06 -8.5e-06 -8.25e-06 
-1.75e-06 -8.57324e-06 -8.25e-06 
-1.75e-06 -8.5e-06 -8.251e-06 
-1.67581e-06 -8.5e-06 -8.25e-06 
-1.25e-06 -8.5e-06 -8.25028e-06 
-1.27663e-06 -8.5e-06 -8.25e-06 
-1.25e-06 -8.52315e-06 -8.25e-06 
-1e-06 -8.58004e-06 -8.25e-06 
-1e-06 -8.5e-06 -8.2516e-06 
-8.56331e-07 -8.5e-06 -8.25e-06 
4e-06 -8.64534e-06 -8.25e-06 
1.075e-05 -8.69479e-06 -8.25e-06 
1.2e-05 -8.73199e-06 -8.25e-06 
-2.75e-06 -8.25e-06 -8.25106e-06 
[...]
POINT_DATA 16239
SCALARS Velocities float 1
LOOKUP_TABLE default
-3.44991e-06
-3.44991e-06
-3.44991e-06
-3.44991e-06
-3.41932e-06
-3.41932e-06
-3.41932e-06
-3.41932e-06
-3.51385e-06
-3.51385e-06
-3.51385e-06
-3.51385e-06
-3.57887e-06
-3.57887e-06
-3.57887e-06
-3.57887e-06
-3.42967e-06
-3.42967e-06
-3.54517e-06
-3.42967e-06
-3.44991e-06
-3.431e-06
-3.431e-06
-3.431e-06
-3.431e-06
-3.57887e-06
-3.57766e-06
-3.57766e-06
-3.57766e-06
-3.57766e-06
-3.42967e-06
-3.48715e-06
-3.48715e-06
-3.48715e-06
-3.48715e-06
-3.53741e-06
-3.53741e-06
-3.59397e-06
-3.49549e-06
-3.42023e-06
-3.32822e-06
-3.39997e-06
-3.39997e-06
-3.39997e-06
-3.39997e-06
-3.4183e-06
-3.4183e-06
-3.4183e-06
-3.53741e-06
-3.45148e-06
-3.45148e-06
-3.45148e-06
-3.48103e-06
-3.48103e-06
-3.48103e-06
-3.33712e-06
-3.52612e-06
-3.59992e-06
-3.33712e-06
-3.63434e-06
-3.63434e-06
-3.63434e-06
-3.39997e-06
-3.47239e-06
-3.47239e-06
-3.47239e-06
-3.47239e-06
-3.4183e-06
-3.21888e-06
-3.21888e-06
-3.21888e-06
-3.21888e-06
-3.31516e-06
-3.31516e-06
-3.31516e-06
-3.32538e-06
-3.31516e-06
-3.48103e-06
-3.21968e-06
-3.63434e-06
-3.47239e-06
-3.36671e-06
-3.36671e-06
-3.36671e-06
-3.36671e-06
-3.60396e-06
-3.60396e-06
-3.58991e-06
-3.60396e-06
-3.21888e-06
-3.31516e-06
-3.56625e-06
-3.56625e-06
-3.56625e-06
-3.51169e-06
-3.51169e-06
-3.51169e-06
-3.55611e-06
-3.55611e-06
-3.55611e-06
-3.46256e-06
-3.46256e-06
-3.46256e-06
-3.36671e-06
-3.60396e-06
-3.60839e-06
-3.60839e-06
-3.60839e-06
-3.60839e-06
-3.79165e-06
-3.79165e-06
-3.79165e-06
-3.79165e-06
-3.46787e-06
-3.46787e-06
-3.46315e-06
-3.73418e-06
-3.71504e-06
-3.71504e-06
-3.56625e-06
-3.51169e-06
-3.55611e-06
-3.46256e-06
-3.43718e-06
-3.43718e-06
-3.43718e-06
-3.54249e-06
-3.54249e-06
-3.54249e-06
-3.25703e-06
-3.25703e-06
-3.25703e-06
-3.40227e-06
-3.40227e-06
-3.40227e-06
-3.40227e-06
-3.63054e-06
-3.63054e-06
-3.63054e-06
-3.63054e-06
-3.79165e-06
-3.39241e-06
-3.39241e-06
-3.39241e-06
-3.39241e-06
-3.55583e-06
-3.55583e-06
-3.55583e-06
-3.55583e-06
-3.63875e-06
-3.63875e-06
-3.63875e-06
-3.63875e-06
-3.46787e-06
-3.71504e-06
-3.48279e-06
-3.48279e-06
-3.48279e-06
-3.43718e-06
-3.48279e-06
-3.49218e-06
-3.35993e-06
-3.49358e-06
-3.49358e-06
-3.49358e-06
-3.24847e-06
-3.24847e-06
-3.37747e-06
-3.37747e-06
-3.37747e-06
-3.4569e-06
-3.44655e-06
-3.53907e-06
-3.4569e-06
-3.40227e-06
-3.63054e-06
-3.39241e-06
-3.25769e-06
-3.63875e-06
-3.36765e-06
-3.36765e-06
-3.36765e-06
-3.36765e-06
-3.48279e-06
-3.49218e-06
-3.47689e-06
-3.47689e-06
-3.47689e-06
-3.24847e-06
-3.37747e-06
-3.56999e-06
-3.56999e-06
-3.44655e-06
-3.4569e-06
-3.56999e-06
-3.43671e-06
-3.62524e-06
-3.5611e-06
-3.30729e-06
-3.36765e-06
-3.22963e-06
-3.22963e-06
-3.22963e-06
-3.22963e-06
-3.47689e-06
-3.56999e-06
-3.4626e-06
-3.4626e-06
-3.61232e-06
-3.4626e-06
-3.36422e-06
-3.36422e-06
-3.51818e-06
-3.36422e-06
-3.38995e-06
-3.45325e-06
-3.45325e-06
-3.45325e-06
-3.45325e-06
-3.27591e-06
-3.27591e-06
-3.27591e-06
-3.41938e-06
-3.43996e-06
-3.53165e-06
-3.43996e-06
-3.22963e-06
-3.36524e-06
-3.36524e-06
-3.36524e-06
-3.36524e-06
-3.4626e-06
-3.36422e-06
-3.45325e-06
-3.25059e-06
-3.25059e-06
-3.25059e-06
-3.25059e-06
-3.27591e-06
-3.53987e-06
-3.53987e-06
-3.53987e-06
-3.53987e-06
-3.43996e-06
-3.58405e-06
-3.43996e-06
-3.43996e-06
-3.3511e-06
-3.52302e-06
-3.3511e-06
-3.3511e-06
-3.44105e-06
-3.44105e-06
-3.44105e-06
-3.47617e-06
-3.47617e-06
-3.47617e-06
-3.47617e-06
-3.57745e-06
-3.57745e-06
-3.57745e-06
-3.57745e-06
-3.25059e-06
-3.53987e-06
-3.43996e-06
-3.3511e-06
-3.47771e-06
-3.47771e-06
-3.47771e-06
-3.47771e-06
-3.44105e-06
-3.41188e-06
-3.41188e-06
-3.41188e-06
-3.41031e-06
-3.51709e-06
-3.51709e-06
-3.51709e-06
-3.51709e-06
-3.47617e-06
-3.57745e-06
-3.43587e-06
-3.43587e-06
-3.43587e-06
-3.43587e-06
-3.33745e-06
-3.33745e-06
-3.33745e-06
-3.48728e-06
-3.47771e-06
-3.31913e-06
-3.3896e-06
-3.58392e-06
-3.58392e-06
-3.58392e-06
-3.3808e-06
-3.3808e-06
-3.3808e-06
-3.50579e-06
-3.50579e-06
-3.45049e-06
-3.51709e-06
-3.43587e-06
-3.33745e-06
-3.18849e-06
-3.18849e-06
-3.18849e-06
-3.18849e-06
-3.31281e-06
-3.58392e-06
-3.3808e-06
-3.50579e-06
-3.40606e-06
-3.40606e-06
-3.50172e-06
-3.40606e-06
-3.63336e-06
-3.63336e-06
-3.63336e-06
-3.63336e-06
-3.35919e-06
-3.52052e-06
-3.35919e-06
-3.35919e-06
-3.66682e-06
-3.66682e-06
-3.66682e-06
-3.66682e-06
-3.48899e-06
-3.48899e-06
-3.48899e-06
-3.48899e-06
-3.43023e-06
-3.40606e-06
-3.5834e-06
-3.48915e-06
-3.31003e-06
-3.48915e-06
-3.48915e-06
-3.50074e-06
-3.50074e-06
-3.50074e-06
-3.50074e-06
-3.28542e-06
-3.54143e-06
-3.41496e-06
-3.28542e-06
-3.35919e-06
-3.66682e-06
-3.48899e-06
-3.36427e-06
-3.36427e-06
-3.36427e-06
-3.22025e-06
-3.22025e-06
-3.22025e-06
-3.49661e-06
-3.49661e-06
-3.49661e-06
-3.67386e-06
-3.46581e-06
-3.46581e-06
-3.46581e-06
-3.46581e-06
-3.37215e-06
-3.37215e-06
-3.45332e-06
-3.37215e-06
-3.61007e-06
-3.61007e-06
-3.61007e-06
-3.50074e-06
-3.28542e-06
-3.45287e-06
-3.64314e-06
-3.31503e-06
-3.22025e-06
-3.39192e-06
-3.17866e-06
-3.39192e-06
-3.46581e-06
-3.37215e-06
-3.57894e-06
-3.57894e-06
-3.57894e-06
-3.46028e-06
-3.46028e-06
-3.46028e-06
-3.22613e-06
-3.22613e-06
-3.22613e-06
-3.22613e-06
-3.61007e-06
-3.4136e-06
-3.4136e-06
-3.4136e-06
-3.4136e-06
-3.33014e-06
-3.54333e-06
-3.54333e-06
-3.54333e-06
-3.61695e-06
-3.54333e-06
-3.39461e-06
-3.46028e-06
-3.20492e-06
-3.20492e-06
-3.20492e-06
-3.20492e-06
-3.81493e-06
-3.81493e-06
-3.55189e-06
-3.81493e-06
-3.22613e-06
-3.66929e-06
-3.66929e-06
-3.66929e-06
-3.51216e-06
-3.52413e-06
-3.16904e-06
-3.4136e-06
-3.35221e-06
-3.35221e-06
-3.35221e-06
-3.35221e-06
-3.41154e-06
-3.41154e-06
-3.41154e-06
-3.35249e-06
-3.54333e-06
-3.20492e-06
-3.81493e-06
-3.53859e-06
-3.53859e-06
-3.53859e-06
-3.57187e-06
-3.50717e-06
-3.57187e-06
-3.32209e-06
-3.522e-06
-3.35408e-06
-3.522e-06
-3.35408e-06
-3.38629e-06
-3.35408e-06
-3.3219e-06
-3.29124e-06
-3.29124e-06
-3.29124e-06
-3.29124e-06
-3.57788e-06
-3.57788e-06
-3.57788e-06
-3.57788e-06
-3.3855e-06
-3.4637e-06
-3.48987e-06
-3.48987e-06
-3.48987e-06
-3.48987e-06
-3.32591e-06
-3.32591e-06
-3.32591e-06
-3.35648e-06
-3.35648e-06
-3.35648e-06
-3.12125e-06
-3.12125e-06
-3.12125e-06
-3.12125e-06
-3.33091e-06
-3.40912e-06
-3.40912e-06
-3.40912e-06
-3.34559e-06
-3.55219e-06
-3.55219e-06
-3.33634e-06
-3.57788e-06
-3.53793e-06
-3.53793e-06
-3.53793e-06
-3.53793e-06
-3.4931e-06
-3.4931e-06
-3.4931e-06
-3.4931e-06
-3.48987e-06
-3.32591e-06
-3.35648e-06
-3.60034e-06
-3.60034e-06
-3.60034e-06
-3.56116e-06
-3.56116e-06
-3.12125e-06
-3.56116e-06
-3.60558e-06
-3.60558e-06
-3.60558e-06
-3.69007e-06
-3.69007e-06
-3.69007e-06
-3.40774e-06
-3.40774e-06
-3.33091e-06
-3.30753e-06
-3.4608e-06
-3.30753e-06
-3.61404e-06
-3.61404e-06
-3.23404e-06
-3.42631e-06
-3.23404e-06
-3.42631e-06
-3.42631e-06
-3.26511e-06
-3.26511e-06
-3.26511e-06
-3.26511e-06
-3.55219e-06
-3.37221e-06
-3.37221e-06
-3.37221e-06
-3.37221e-06
-3.48087e-06
-3.48087e-06
-3.48087e-06
-3.48087e-06
-3.53793e-06
-3.36367e-06
-3.36367e-06
-3.36367e-06
-3.46965e-06
-3.46965e-06
-3.34017e-06
-3.35493e-06
-3.4931e-06
-3.35493e-06
-3.32333e-06
-3.32333e-06
-3.32333e-06
-3.55654e-06
-3.40898e-06
-3.42825e-06
-3.29426e-06
-3.42825e-06
-3.29426e-06
-3.44276e-06
-3.68353e-06
-3.44276e-06
-3.68353e-06
-3.49295e-06
-3.49295e-06
-3.38456e-06
-3.25484e-06
-3.25484e-06
-3.25484e-06
-3.25484e-06
-3.5043e-06
-3.5043e-06
-3.5043e-06
-3.37112e-06
-3.37112e-06
-3.37112e-06
-3.57375e-06
-3.57375e-06
-3.57375e-06
-3.60034e-06
-3.57375e-06
-3.56116e-06
-3.67371e-06
-3.40382e-06
-3.51871e-06
-3.41581e-06
-3.60558e-06
-3.69007e-06
-3.48619e-06
-3.48619e-06
-3.48619e-06
-3.58593e-06
-3.31483e-06
-3.31483e-06
-3.4608e-06
-3.31483e-06
-3.46543e-06
-3.46543e-06
-3.46543e-06
-3.42631e-06
-3.51051e-06
-3.51051e-06
-3.61614e-06
-3.45011e-06
-3.45011e-06
-3.32446e-06
-3.45011e-06
-3.62193e-06
-3.45034e-06
-3.63021e-06
-3.62193e-06
-3.42689e-06
-3.42689e-06
-3.42689e-06
-3.42689e-06
-3.37221e-06
-3.48087e-06
-3.13965e-06
-3.33137e-06
-3.13965e-06
-3.41874e-06
-3.36367e-06
-3.46965e-06
-3.35493e-06
-3.32333e-06
-3.55217e-06
-3.29426e-06
-3.6421e-06
-3.30665e-06
-3.6421e-06
-3.38456e-06
-3.30467e-06
-3.30467e-06
-3.67741e-06
-3.67741e-06
-3.67741e-06
-3.48198e-06
-3.142e-06
-3.142e-06
-3.142e-06
-3.5043e-06
-3.37112e-06
-3.57375e-06
-3.77004e-06
-3.52225e-06
-3.52225e-06
-3.52225e-06
-3.58593e-06
-3.31483e-06
-3.51711e-06
-3.51711e-06
-3.51711e-06
-3.51051e-06
-3.57233e-06
-3.57233e-06
-3.57233e-06
-3.62193e-06
-3.51265e-06
-3.59904e-06
-3.59904e-06
-3.59904e-06
-3.59904e-06
-3.13965e-06
-3.27839e-06
-3.27839e-06
-3.27839e-06
-3.27839e-06
-3.30665e-06
-3.30467e-06
-3.36552e-06
-3.142e-06
-3.52225e-06
-3.78722e-06
-3.75439e-06
-3.75439e-06
-3.78722e-06
-3.45124e-06
-3.54827e-06
-3.54827e-06
-3.57233e-06
-3.23358e-06
-3.23358e-06
-3.23358e-06
-3.23358e-06
-3.59904e-06
-3.48841e-06
-3.43064e-06
-3.6785e-06
-3.48841e-06
-3.27839e-06
-3.42469e-06
-3.42469e-06
-3.42469e-06
-3.56499e-06
-3.51732e-06
-3.51732e-06
-3.51732e-06
-3.51732e-06
-3.37479e-06
-3.37479e-06
-3.37479e-06
-3.64465e-06
-3.64465e-06
-3.64465e-06
-3.7853e-06
-3.77454e-06
-3.45384e-06
-3.7853e-06
-3.58233e-06
-3.58233e-06
-3.58233e-06
-3.58233e-06
-3.5836e-06
-3.5836e-06
-3.52868e-06
-3.52868e-06
-3.45025e-06
-3.45025e-06
-3.44509e-06
-3.59169e-06
-3.59169e-06
-3.59169e-06
-3.73878e-06
-3.73878e-06
-3.48433e-06
-3.73878e-06
-3.23358e-06
-3.48841e-06
-3.50859e-06
-3.50859e-06
-3.50859e-06
-3.40189e-06
-3.5705e-06
-3.40189e-06
-3.41999e-06
-3.41999e-06
-3.37479e-06
-3.64465e-06
-3.50182e-06
-3.50182e-06
-3.40875e-06
-3.40875e-06
-3.28084e-06
-3.63329e-06
-3.63329e-06
-3.58233e-06
-3.70899e-06
-3.62643e-06
-3.70899e-06
-3.45489e-06
-3.45489e-06
-3.40377e-06
-3.40377e-06
-3.40377e-06
-3.40377e-06
-3.45025e-06
-3.59169e-06
-3.73878e-06
-3.54372e-06
-3.40348e-06
-3.44445e-06
-3.54372e-06
-3.46483e-06
-3.50098e-06
-3.48203e-06
-3.5705e-06
-3.42828e-06
-3.42828e-06
-3.41999e-06
-3.50182e-06
-3.40875e-06
-3.63329e-06
-3.30584e-06
-3.30584e-06
-3.30584e-06
-3.51428e-06
-3.51428e-06
-3.43135e-06
-3.43135e-06
-3.52394e-06
-3.5527e-06
-3.5527e-06
-3.5527e-06
-3.6263e-06
-3.6263e-06
-3.65194e-06
-3.50161e-06
-3.69347e-06
-3.65194e-06
-3.52657e-06
-3.64923e-06
-3.52657e-06
-3.59278e-06
-3.40854e-06
-3.40854e-06
-3.46819e-06
-3.41975e-06
-3.61924e-06
-3.57027e-06
-3.61924e-06
-3.57027e-06
-3.57027e-06
-3.42735e-06
-3.42735e-06
-3.42735e-06
-3.42735e-06
-3.38871e-06
-3.38871e-06
-3.38871e-06
-3.38871e-06
-3.54372e-06
-3.53063e-06
-3.53063e-06
-3.53063e-06
-3.53063e-06
-3.37784e-06
-3.56696e-06
-3.58446e-06
-3.48203e-06
-3.41269e-06
-3.41737e-06
-3.43289e-06
-3.51467e-06
-3.52145e-06
-3.40607e-06
-3.63401e-06
-3.63401e-06
-3.51796e-06
-3.61136e-06
-3.71198e-06
-3.64713e-06
-3.64713e-06
-3.64713e-06
-3.64713e-06
-3.30584e-06
-3.44723e-06
-3.44723e-06
-3.37986e-06
-3.60509e-06
-3.5527e-06
-3.6263e-06
-3.69347e-06
-3.39477e-06
-3.40854e-06
-3.36227e-06
-3.18639e-06
-3.61924e-06
-3.52053e-06
-3.57027e-06
-3.36537e-06
-3.56411e-06
-3.56411e-06
-3.56411e-06
-3.43674e-06
-3.43674e-06
-3.43674e-06
-3.62708e-06
-3.62708e-06
-3.62708e-06
-3.62708e-06
-3.42735e-06
-3.47546e-06
-3.47546e-06
-3.47546e-06
-3.53063e-06
-3.40271e-06
-3.40271e-06
-3.40271e-06
-3.40271e-06
-3.52358e-06
-3.52358e-06
-3.56696e-06
-3.39707e-06
-3.55044e-06
-3.48906e-06
-3.48906e-06
-3.59424e-06
-3.59424e-06
-3.59424e-06
-3.59424e-06
-3.37239e-06
-3.37239e-06
-3.47797e-06
-3.37239e-06
-3.50006e-06
-3.76541e-06
-3.34785e-06
-3.34785e-06
-3.61136e-06
-3.64713e-06
-3.44723e-06
-3.37986e-06
-3.48238e-06
-3.48238e-06
-3.48238e-06
-3.48238e-06
-3.38234e-06
-3.38234e-06
-3.39477e-06
-3.18639e-06
-3.35256e-06
-3.36227e-06
-3.35256e-06
-3.48932e-06
-3.37219e-06
-3.56029e-06
-3.37262e-06
-3.37262e-06
-3.4896e-06
-3.37262e-06
-3.37352e-06
-3.37352e-06
-3.37352e-06
-3.37352e-06
-3.22834e-06
-3.22834e-06
-3.22834e-06
-3.22834e-06
-3.62708e-06
-3.47546e-06
-3.40271e-06
-3.37865e-06
-3.37865e-06
-3.37865e-06
-3.37865e-06
-3.40176e-06
-3.40176e-06
-3.27181e-06
-3.27181e-06
-3.53522e-06
-3.59424e-06
-3.66924e-06
-3.28035e-06
-3.34785e-06
-3.56636e-06
-3.56636e-06
-3.5741e-06
-3.5741e-06
-3.41325e-06
-3.38234e-06
-3.5189e-06
-3.55625e-06
-3.44013e-06
-3.44013e-06
-3.44013e-06
-3.44013e-06
-3.37352e-06
-3.34722e-06
-3.34722e-06
-3.34722e-06
-3.49418e-06
-3.49418e-06
-3.49418e-06
-3.49418e-06
-3.32784e-06
-3.32784e-06
-3.32784e-06
-3.32784e-06
-3.30136e-06
-3.30136e-06
-3.30136e-06
-3.50997e-06
-3.50997e-06
-3.54815e-06
-3.37865e-06
-3.46668e-06
-3.46668e-06
-3.46668e-06
-3.46668e-06
-3.49798e-06
-3.75535e-06
-3.75535e-06
-3.49798e-06
-3.75535e-06
-3.56636e-06
-3.47471e-06
-3.44562e-06
-3.44373e-06
-3.53578e-06
-3.33753e-06
-3.44013e-06
-3.34722e-06
-3.49418e-06
-3.32784e-06
-3.30136e-06
-3.50997e-06
-3.46668e-06
-3.75535e-06
-3.54562e-06
-3.54562e-06
-3.54562e-06
-3.54728e-06
-3.54728e-06
-3.54728e-06
-3.58344e-06
-3.58344e-06
-3.58344e-06
-3.42687e-06
-3.42687e-06
-3.42687e-06
-3.43219e-06
-3.43219e-06
-3.43219e-06
-3.46706e-06
-3.46706e-06
-3.38137e-06
-3.46559e-06
-3.48005e-06
-3.42747e-06
-3.42747e-06
-3.45831e-06
-3.45831e-06
-3.45831e-06
-3.43029e-06
-3.37016e-06
-3.50783e-06
-3.49074e-06
-3.49074e-06
-3.76989e-06
-3.498e-06
-3.49862e-06
-3.34308e-06
-3.59504e-06
-3.55686e-06
-3.52335e-06
-3.31789e-06
-3.31789e-06
-3.31789e-06
-3.54562e-06
-3.31789e-06
-3.47568e-06
-3.61111e-06
-3.61111e-06
-3.61111e-06
-3.42687e-06
-3.31836e-06
-3.46706e-06
-3.5604e-06
-3.5604e-06
-3.66978e-06
-3.66978e-06
-3.45831e-06
-3.32159e-06
-3.32159e-06
-3.32159e-06
-3.32159e-06
-3.39249e-06
-3.39249e-06
-3.39249e-06
-3.39249e-06
-3.32378e-06
-3.44104e-06
-3.44104e-06
-3.28848e-06
-3.56585e-06
-3.56585e-06
-3.56585e-06
-3.498e-06
-3.47409e-06
-3.50348e-06
-3.47409e-06
-3.50348e-06
-3.31789e-06
-3.70837e-06
-3.70837e-06
-3.70837e-06
-3.5604e-06
-3.66978e-06
-3.42897e-06
-3.45149e-06
-3.43732e-06
-3.62112e-06
-3.62112e-06
-3.52179e-06
-3.52179e-06
-3.48966e-06
-3.44104e-06
-3.44104e-06
-3.32378e-06
-3.44104e-06
-3.56585e-06
-3.50373e-06
-3.50373e-06
-3.50373e-06
-3.55623e-06
-3.55623e-06
-3.55623e-06
-3.55623e-06
-3.70837e-06
-3.48799e-06
-3.48799e-06
-3.48799e-06
-3.48799e-06
-3.53754e-06
-3.53754e-06
-3.60523e-06
-3.59349e-06
-3.59349e-06
-3.52598e-06
-3.52598e-06
-3.539e-06
-3.52598e-06
-3.60033e-06
-3.60033e-06
-3.60033e-06
-3.44104e-06
-3.60033e-06
-3.23069e-06
-3.23069e-06
-3.23069e-06
-3.43626e-06
-3.43626e-06
-3.43626e-06
-3.43626e-06
-3.39804e-06
-3.39804e-06
-3.39804e-06
-3.39804e-06
-3.34012e-06
-3.34012e-06
-3.34012e-06
-3.50373e-06
-3.34012e-06
-3.55623e-06
-3.48799e-06
-3.39464e-06
-3.40515e-06
-3.5438e-06
-3.54039e-06
-3.54039e-06
-3.40705e-06
-3.40705e-06
-3.40705e-06
-3.40705e-06
-3.41434e-06
-3.41434e-06
-3.54397e-06
-3.41434e-06
-3.52598e-06
-3.42639e-06
-3.42639e-06
-3.67668e-06
-3.42639e-06
-3.60033e-06
-3.23069e-06
-3.23069e-06
-3.26917e-06
-3.50297e-06
-3.50297e-06
-3.39407e-06
-3.39804e-06
-3.55158e-06
-3.55158e-06
-3.55158e-06
-3.55158e-06
-3.70195e-06
-3.60109e-06
-3.47715e-06
-3.70195e-06
-3.34012e-06
-3.41534e-06
-3.45209e-06
-3.41534e-06
-3.41534e-06
-3.3472e-06
-3.3472e-06
-3.3472e-06
-3.3472e-06
-3.55995e-06
-3.5438e-06
-3.54039e-06
-3.61739e-06
-3.39071e-06
-3.37669e-06
-3.50297e-06
-3.30013e-06
-3.46585e-06
-3.57775e-06
-3.32549e-06
-3.57175e-06
-3.57775e-06
-3.46401e-06
-3.46401e-06
-3.35679e-06
-3.46401e-06
-3.55158e-06
-3.52413e-06
-3.52413e-06
-3.52413e-06
-3.70195e-06
-3.52413e-06
-3.67509e-06
-3.47105e-06
-3.47105e-06
-3.47105e-06
-3.34274e-06
-3.45297e-06
-3.45297e-06
-3.22523e-06
-3.3472e-06
-3.54745e-06
-3.56899e-06
-3.56899e-06
-3.56899e-06
-3.48115e-06
-3.48115e-06
-3.48115e-06
-3.66538e-06
-3.66538e-06
-3.66538e-06
-3.66538e-06
-3.55393e-06
-3.55393e-06
-3.55393e-06
-3.55393e-06
-3.46585e-06
-3.67337e-06
-3.67337e-06
-3.67337e-06
-3.67337e-06
-3.57775e-06
-3.46401e-06
-3.48061e-06
-3.48061e-06
-3.48061e-06
-3.52413e-06
-3.39485e-06
-3.52812e-06
-3.52812e-06
-3.52812e-06
-3.52812e-06
-3.53656e-06
-3.53656e-06
-3.53656e-06
-3.45297e-06
-3.56899e-06
-3.34326e-06
-3.34326e-06
-3.42796e-06
-3.68658e-06
-3.68658e-06
-3.68658e-06
-3.53619e-06
-3.53619e-06
-3.56704e-06
-3.67337e-06
-3.38863e-06
-3.65039e-06
-3.38437e-06
-3.65039e-06
-3.65039e-06
-3.17209e-06
-3.53656e-06
-3.39579e-06
-3.39579e-06
-3.39579e-06
-3.41687e-06
-3.43167e-06
-3.41687e-06
-3.43167e-06
-3.54838e-06
-3.54838e-06
-3.52364e-06
-3.33322e-06
-3.68658e-06
-3.66712e-06
-3.66712e-06
-3.66712e-06
-3.53619e-06
-3.66712e-06
-3.16508e-06
-3.16508e-06
-3.16508e-06
-3.39174e-06
-3.51782e-06
-3.51782e-06
-3.51782e-06
-3.77314e-06
-3.45394e-06
-3.39579e-06
-3.43934e-06
-3.43934e-06
-3.43934e-06
-3.42319e-06
-3.3861e-06
-3.3861e-06
-3.3861e-06
-3.48588e-06
-3.48588e-06
-3.48588e-06
-3.66712e-06
-3.42537e-06
-3.42537e-06
-3.42537e-06
-3.42537e-06
-3.16508e-06
-3.74123e-06
-3.74123e-06
-3.56521e-06
-3.56521e-06
-3.47987e-06
-3.47987e-06
-3.47987e-06
-3.47987e-06
-3.43934e-06
-3.3861e-06
-3.48588e-06
-3.26633e-06
-3.26633e-06
-3.26633e-06
-3.45775e-06
-3.45775e-06
-3.45775e-06
-3.45775e-06
-3.44906e-06
-3.40181e-06
-3.48062e-06
-3.48062e-06
-3.48062e-06
-3.48062e-06
-3.26633e-06
-3.45775e-06
-3.51061e-06
-3.63062e-06
-3.51061e-06
-3.46669e-06
-3.43886e-06
-3.43886e-06
-3.43886e-06
-3.43886e-06
-3.48062e-06
-3.5725e-06
-3.5725e-06
-3.5725e-06
-3.43886e-06
-3.472e-06
-3.472e-06
-3.472e-06
-3.54171e-06
-3.54171e-06
-3.54171e-06
-3.5725e-06
-3.42439e-06
-3.42439e-06
-3.42439e-06
-3.42439e-06
-3.37531e-06
-3.37531e-06
-3.37531e-06
-3.37531e-06
-3.61541e-06
-3.61541e-06
-3.61541e-06
-3.61541e-06
-3.472e-06
-3.54171e-06
-3.38909e-06
-3.38909e-06
-3.38909e-06
-3.38909e-06
-3.55528e-06
-3.55528e-06
-3.55528e-06
-3.55528e-06
-3.42439e-06
-3.37531e-06
-3.61541e-06
-3.34505e-06
-3.34505e-06
-3.34505e-06
-3.34505e-06
-3.38909e-06
-3.414e-06
-3.414e-06
-3.414e-06
-3.414e-06
-3.55528e-06
-3.47731e-06
-3.47731e-06
-3.47731e-06
-3.47731e-06
-3.32793e-06
-3.28013e-06
-3.51202e-06
-3.63546e-06
-3.44544e-06
-3.68485e-06
-3.68485e-06
-3.68485e-06
-3.47731e-06
-3.47593e-06
-3.37652e-06
-3.32362e-06
-3.47593e-06
-3.4795e-06
-3.4795e-06
-3.4795e-06
-3.4795e-06
-3.47663e-06
-3.47663e-06
-3.62465e-06
-3.47663e-06
-3.34379e-06
-3.34379e-06
-3.34379e-06
-3.68485e-06
-3.50397e-06
-3.50397e-06
-3.50397e-06
-3.50397e-06
-3.51961e-06
-3.60919e-06
-3.51588e-06
-3.51961e-06
-3.47593e-06
-3.4795e-06
-3.47663e-06
-3.34379e-06
-3.50397e-06
-3.51961e-06
-3.3614e-06
-3.3614e-06
-3.3614e-06
-3.3614e-06
-3.46211e-06
-3.39251e-06
-3.46211e-06
-3.46211e-06
-3.41263e-06
-3.41263e-06
-3.41263e-06
-3.41263e-06
-3.4458e-06
-3.4458e-06
-3.35281e-06
-3.4458e-06
-3.4548e-06
-3.4548e-06
-3.4685e-06
-3.46211e-06
-3.43696e-06
-3.43696e-06
-3.43696e-06
-3.27969e-06
-3.27969e-06
-3.27969e-06
-3.4214e-06
-3.4214e-06
-3.4214e-06
-3.4214e-06
-3.45668e-06
-3.58096e-06
-3.58096e-06
-3.45668e-06
-3.58096e-06
-3.4458e-06
-3.3607e-06
-3.3607e-06
-3.3607e-06
-3.3607e-06
-3.4548e-06
-3.55643e-06
-3.55643e-06
-3.55643e-06
-3.55643e-06
-3.41995e-06
-3.41995e-06
-3.41995e-06
-3.41995e-06
-3.25517e-06
-3.25517e-06
-3.25517e-06
-3.30078e-06
-3.41834e-06
-3.27969e-06
-3.4214e-06
-3.5149e-06
-3.5149e-06
-3.5149e-06
-3.45668e-06
-3.50749e-06
-3.6597e-06
-3.39714e-06
-3.39714e-06
-3.32302e-06
-3.40363e-06
-3.32302e-06
-3.58678e-06
-3.40363e-06
-3.3607e-06
-3.4395e-06
-3.4395e-06
-3.74515e-06
-3.4395e-06
-3.55643e-06
-3.46369e-06
-3.63585e-06
-3.63585e-06
-3.63585e-06
-3.63585e-06
-3.45762e-06
-3.45762e-06
-3.45762e-06
-3.45762e-06
-3.40157e-06
-3.30078e-06
-3.5149e-06
-3.59704e-06
-3.59704e-06
-3.3884e-06
-3.22542e-06
-3.39714e-06
-3.40363e-06
-3.47708e-06
-3.47708e-06
-3.47708e-06
-3.55468e-06
-3.55468e-06
-3.55468e-06
-3.61221e-06
-3.61221e-06
-3.61221e-06
-3.61221e-06
-3.4395e-06
-3.63585e-06
-3.48002e-06
-3.48002e-06
-3.48002e-06
-3.47136e-06
-3.58219e-06
-3.46805e-06
-3.35138e-06
-3.35138e-06
-3.35138e-06
-3.50251e-06
-3.50251e-06
-3.50251e-06
-3.49066e-06
-3.49066e-06
-3.59704e-06
-3.49066e-06
-3.46638e-06
-3.78937e-06
-3.46638e-06
-3.47708e-06
-3.40042e-06
-3.40042e-06
-3.40042e-06
-3.61221e-06
-3.37222e-06
-3.37222e-06
-3.37222e-06
-3.37222e-06
-3.48002e-06
-3.37605e-06
-3.46805e-06