# vtk DataFile Version 2.0
3D Surface
ASCII
DATASET UNSTRUCTURED_GRID
POINTS 14661 float
-1.2e-05 -1.225e-05 -8.93064e-06 
-1.2e-05 -1.2e-05 -8.92545e-06 
-1.225e-05 -1.225e-05 -8.92982e-06 
-1.225e-05 -1.2e-05 -8.92808e-06 
-1.175e-05 -1.225e-05 -8.93938e-06 
-1.175e-05 -1.2e-05 -8.92948e-06 
-1.15e-05 -1.225e-05 -8.93245e-06 
-1.15e-05 -1.2e-05 -8.93152e-06 
-1.125e-05 -1.225e-05 -8.9321e-06 
-1.125e-05 -1.2e-05 -8.9379e-06 
-1.1e-05 -1.225e-05 -8.9406e-06 
-1.1e-05 -1.2e-05 -8.93747e-06 
-1.075e-05 -1.225e-05 -8.94222e-06 
-1.075e-05 -1.2e-05 -8.93314e-06 
-1.05e-05 -1.225e-05 -8.93282e-06 
-1.05e-05 -1.2e-05 -8.93216e-06 
-1.025e-05 -1.225e-05 -8.93145e-06 
-1.025e-05 -1.2e-05 -8.93542e-06 
-1e-05 -1.225e-05 -8.93618e-06 
-1e-05 -1.2e-05 -8.93622e-06 
-9.75e-06 -1.225e-05 -8.92254e-06 
-9.75e-06 -1.2e-05 -8.9288e-06 
-9.5e-06 -1.225e-05 -8.9316e-06 
-9.5e-06 -1.2e-05 -8.93419e-06 
-9.25e-06 -1.225e-05 -8.93178e-06 
-9.25e-06 -1.2e-05 -8.92698e-06 
-9e-06 -1.225e-05 -8.93141e-06 
-9e-06 -1.2e-05 -8.93195e-06 
-8.75e-06 -1.225e-05 -8.93351e-06 
-8.75e-06 -1.2e-05 -8.9342e-06 
-8.5e-06 -1.225e-05 -8.93771e-06 
-8.5e-06 -1.2e-05 -8.94136e-06 
-8.25e-06 -1.225e-05 -8.93889e-06 
-8.25e-06 -1.2e-05 -8.93117e-06 
-8e-06 -1.225e-05 -8.94143e-06 
-8e-06 -1.2e-05 -8.9322e-06 
-7.75e-06 -1.225e-05 -8.94037e-06 
-7.75e-06 -1.2e-05 -8.93521e-06 
-7.5e-06 -1.225e-05 -8.93091e-06 
-7.5e-06 -1.2e-05 -8.93639e-06 
-7.25e-06 -1.225e-05 -8.93415e-06 
-7.25e-06 -1.2e-05 -8.93581e-06 
-7e-06 -1.225e-05 -8.93595e-06 
-7e-06 -1.2e-05 -8.93346e-06 
-6.75e-06 -1.225e-05 -8.93723e-06 
-6.75e-06 -1.2e-05 -8.93526e-06 
-6.5e-06 -1.225e-05 -8.92712e-06 
-6.5e-06 -1.2e-05 -8.93143e-06 
-6.25e-06 -1.225e-05 -8.93103e-06 
-6.25e-06 -1.2e-05 -8.9288e-06 
-6e-06 -1.225e-05 -8.93332e-06 
-6e-06 -1.2e-05 -8.9363e-06 
-5.75e-06 -1.225e-05 -8.92991e-06 
-5.75e-06 -1.2e-05 -8.9347e-06 
-5.5e-06 -1.225e-05 -8.93367e-06 
-5.5e-06 -1.2e-05 -8.93601e-06 
-5.25e-06 -1.225e-05 -8.93881e-06 
-5.25e-06 -1.2e-05 -8.94424e-06 
-5e-06 -1.225e-05 -8.93078e-06 
-5e-06 -1.2e-05 -8.93283e-06 
-4.75e-06 -1.225e-05 -8.93141e-06 
-4.75e-06 -1.2e-05 -8.93057e-06 
-4.5e-06 -1.225e-05 -8.94122e-06 
-4.5e-06 -1.2e-05 -8.93574e-06 
-4.25e-06 -1.225e-05 -8.93814e-06 
-4.25e-06 -1.2e-05 -8.92992e-06 
-4e-06 -1.225e-05 -8.93391e-06 
-4e-06 -1.2e-05 -8.93906e-06 
-3.75e-06 -1.225e-05 -8.93298e-06 
-3.75e-06 -1.2e-05 -8.9296e-06 
-3.5e-06 -1.225e-05 -8.9311e-06 
-3.5e-06 -1.2e-05 -8.93313e-06 
-3.25e-06 -1.225e-05 -8.92803e-06 
-3.25e-06 -1.2e-05 -8.93524e-06 
-3e-06 -1.225e-05 -8.93305e-06 
-3e-06 -1.2e-05 -8.93113e-06 
-2.75e-06 -1.225e-05 -8.93493e-06 
-2.75e-06 -1.2e-05 -8.93806e-06 
-2.5e-06 -1.225e-05 -8.93388e-06 
-2.5e-06 -1.2e-05 -8.93031e-06 
-2.25e-06 -1.225e-05 -8.93736e-06 
-2.25e-06 -1.2e-05 -8.93764e-06 
-2e-06 -1.225e-05 -8.92871e-06 
-2e-06 -1.2e-05 -8.93906e-06 
-1.75e-06 -1.225e-05 -8.93227e-06 
-1.75e-06 -1.2e-05 -8.93526e-06 
-1.5e-06 -1.225e-05 -8.93376e-06 
-1.5e-06 -1.2e-05 -8.92974e-06 
-1.25e-06 -1.225e-05 -8.93252e-06 
-1.25e-06 -1.2e-05 -8.92912e-06 
-1e-06 -1.225e-05 -8.93215e-06 
-1e-06 -1.2e-05 -8.93088e-06 
-7.5e-07 -1.225e-05 -8.93532e-06 
-7.5e-07 -1.2e-05 -8.93342e-06 
-5e-07 -1.225e-05 -8.94057e-06 
-5e-07 -1.2e-05 -8.92911e-06 
-2.5e-07 -1.225e-05 -8.93375e-06 
-2.5e-07 -1.2e-05 -8.93957e-06 
0 -1.225e-05 -8.93307e-06 
0 -1.2e-05 -8.92527e-06 
2.5e-07 -1.225e-05 -8.93598e-06 
2.5e-07 -1.2e-05 -8.92872e-06 
5e-07 -1.225e-05 -8.93723e-06 
5e-07 -1.2e-05 -8.93485e-06 
7.5e-07 -1.225e-05 -8.9307e-06 
7.5e-07 -1.2e-05 -8.92889e-06 
1e-06 -1.225e-05 -8.93038e-06 
1e-06 -1.2e-05 -8.9354e-06 
1.25e-06 -1.225e-05 -8.92574e-06 
1.25e-06 -1.2e-05 -8.94398e-06 
1.5e-06 -1.225e-05 -8.9314e-06 
1.5e-06 -1.2e-05 -8.93441e-06 
1.75e-06 -1.225e-05 -8.93017e-06 
1.75e-06 -1.2e-05 -8.93637e-06 
2e-06 -1.225e-05 -8.93573e-06 
2e-06 -1.2e-05 -8.93191e-06 
2.25e-06 -1.225e-05 -8.93281e-06 
2.25e-06 -1.2e-05 -8.9289e-06 
2.5e-06 -1.225e-05 -8.93664e-06 
2.5e-06 -1.2e-05 -8.93265e-06 
2.75e-06 -1.225e-05 -8.93027e-06 
2.75e-06 -1.2e-05 -8.92774e-06 
3e-06 -1.225e-05 -8.93148e-06 
3e-06 -1.2e-05 -8.93242e-06 
3.25e-06 -1.225e-05 -8.9293e-06 
3.25e-06 -1.2e-05 -8.933e-06 
3.5e-06 -1.225e-05 -8.93166e-06 
3.5e-06 -1.2e-05 -8.93284e-06 
3.75e-06 -1.225e-05 -8.93088e-06 
3.75e-06 -1.2e-05 -8.93428e-06 
4e-06 -1.225e-05 -8.93997e-06 
4e-06 -1.2e-05 -8.9322e-06 
4.25e-06 -1.225e-05 -8.93805e-06 
4.25e-06 -1.2e-05 -8.93395e-06 
4.5e-06 -1.225e-05 -8.93231e-06 
4.5e-06 -1.2e-05 -8.92928e-06 
4.75e-06 -1.225e-05 -8.93268e-06 
4.75e-06 -1.2e-05 -8.92976e-06 
5e-06 -1.225e-05 -8.9347e-06 
5e-06 -1.2e-05 -8.93259e-06 
5.25e-06 -1.225e-05 -8.93643e-06 
5.25e-06 -1.2e-05 -8.92854e-06 
5.5e-06 -1.225e-05 -8.9403e-06 
5.5e-06 -1.2e-05 -8.93696e-06 
5.75e-06 -1.225e-05 -8.93481e-06 
5.75e-06 -1.2e-05 -8.93483e-06 
6e-06 -1.225e-05 -8.93267e-06 
6e-06 -1.2e-05 -8.93741e-06 
6.25e-06 -1.225e-05 -8.93497e-06 
6.25e-06 -1.2e-05 -8.93338e-06 
6.5e-06 -1.225e-05 -8.93701e-06 
6.5e-06 -1.2e-05 -8.94382e-06 
6.75e-06 -1.225e-05 -8.93002e-06 
6.75e-06 -1.2e-05 -8.94897e-06 
7e-06 -1.225e-05 -8.93401e-06 
7e-06 -1.2e-05 -8.93246e-06 
7.25e-06 -1.225e-05 -8.93835e-06 
7.25e-06 -1.2e-05 -8.92151e-06 
7.5e-06 -1.225e-05 -8.92987e-06 
7.5e-06 -1.2e-05 -8.92529e-06 
7.75e-06 -1.225e-05 -8.93185e-06 
7.75e-06 -1.2e-05 -8.92739e-06 
8e-06 -1.225e-05 -8.93018e-06 
8e-06 -1.2e-05 -8.92959e-06 
8.25e-06 -1.225e-05 -8.93972e-06 
8.25e-06 -1.2e-05 -8.94541e-06 
8.5e-06 -1.225e-05 -8.93015e-06 
8.5e-06 -1.2e-05 -8.93279e-06 
8.75e-06 -1.225e-05 -8.93143e-06 
8.75e-06 -1.2e-05 -8.93415e-06 
9e-06 -1.225e-05 -8.93247e-06 
9e-06 -1.2e-05 -8.93202e-06 
9.25e-06 -1.225e-05 -8.93387e-06 
9.25e-06 -1.2e-05 -8.93839e-06 
9.5e-06 -1.225e-05 -8.93531e-06 
9.5e-06 -1.2e-05 -8.93302e-06 
9.75e-06 -1.225e-05 -8.94745e-06 
9.75e-06 -1.2e-05 -8.93476e-06 
1e-05 -1.225e-05 -8.93066e-06 
1e-05 -1.2e-05 -8.93323e-06 
1.025e-05 -1.225e-05 -8.93387e-06 
1.025e-05 -1.2e-05 -8.92954e-06 
1.05e-05 -1.225e-05 -8.93583e-06 
1.05e-05 -1.2e-05 -8.92958e-06 
1.075e-05 -1.225e-05 -8.93283e-06 
1.075e-05 -1.2e-05 -8.92672e-06 
1.1e-05 -1.225e-05 -8.93261e-06 
1.1e-05 -1.2e-05 -8.93372e-06 
1.125e-05 -1.225e-05 -8.93386e-06 
1.125e-05 -1.2e-05 -8.93006e-06 
1.15e-05 -1.225e-05 -8.94057e-06 
1.15e-05 -1.2e-05 -8.93826e-06 
1.175e-05 -1.225e-05 -8.94184e-06 
1.175e-05 -1.2e-05 -8.93595e-06 
1.2e-05 -1.225e-05 -8.92863e-06 
1.2e-05 -1.2e-05 -8.92093e-06 
1.225e-05 -1.225e-05 -8.92982e-06 
1.225e-05 -1.2e-05 -8.92808e-06 
-1.2e-05 -1.175e-05 -8.93051e-06 
-1.225e-05 -1.175e-05 -8.9324e-06 
-1.175e-05 -1.175e-05 -8.93838e-06 
-1.15e-05 -1.175e-05 -8.9364e-06 
-1.125e-05 -1.175e-05 -8.92242e-06 
-1.1e-05 -1.175e-05 -8.93386e-06 
-1.075e-05 -1.175e-05 -8.92799e-06 
-1.05e-05 -1.175e-05 -8.92872e-06 
-1.025e-05 -1.175e-05 -8.92964e-06 
-1e-05 -1.175e-05 -8.93269e-06 
-9.75e-06 -1.175e-05 -8.93622e-06 
-9.5e-06 -1.175e-05 -8.93673e-06 
-9.25e-06 -1.175e-05 -8.93033e-06 
-9e-06 -1.175e-05 -8.93779e-06 
-8.75e-06 -1.175e-05 -8.9226e-06 
-8.5e-06 -1.175e-05 -8.92779e-06 
-8.25e-06 -1.175e-05 -8.93063e-06 
-8e-06 -1.175e-05 -8.93098e-06 
-7.75e-06 -1.175e-05 -8.93595e-06 
-7.5e-06 -1.175e-05 -8.93924e-06 
-7.25e-06 -1.175e-05 -8.93247e-06 
-7e-06 -1.175e-05 -8.93374e-06 
-6.75e-06 -1.175e-05 -8.9302e-06 
-6.5e-06 -1.175e-05 -8.93308e-06 
-6.25e-06 -1.175e-05 -8.9449e-06 
-6e-06 -1.175e-05 -8.93283e-06 
-5.75e-06 -1.175e-05 -8.93402e-06 
-5.5e-06 -1.175e-05 -8.93716e-06 
-5.25e-06 -1.175e-05 -8.9318e-06 
-5e-06 -1.175e-05 -8.92903e-06 
-4.75e-06 -1.175e-05 -8.93203e-06 
-4.5e-06 -1.175e-05 -8.9288e-06 
-4.25e-06 -1.175e-05 -8.92297e-06 
-4e-06 -1.175e-05 -8.93586e-06 
-3.75e-06 -1.175e-05 -8.93407e-06 
-3.5e-06 -1.175e-05 -8.93672e-06 
-3.25e-06 -1.175e-05 -8.93763e-06 
-3e-06 -1.175e-05 -8.93076e-06 
-2.75e-06 -1.175e-05 -8.92892e-06 
-2.5e-06 -1.175e-05 -8.92859e-06 
-2.25e-06 -1.175e-05 -8.93303e-06 
-2e-06 -1.175e-05 -8.94383e-06 
-1.75e-06 -1.175e-05 -8.93448e-06 
-1.5e-06 -1.175e-05 -8.9281e-06 
-1.25e-06 -1.175e-05 -8.93678e-06 
-1e-06 -1.175e-05 -8.92241e-06 
-7.5e-07 -1.175e-05 -8.92733e-06 
-5e-07 -1.175e-05 -8.92684e-06 
-2.5e-07 -1.175e-05 -8.93936e-06 
0 -1.175e-05 -8.9357e-06 
2.5e-07 -1.175e-05 -8.93849e-06 
5e-07 -1.175e-05 -8.93363e-06 
7.5e-07 -1.175e-05 -8.9325e-06 
1e-06 -1.175e-05 -8.94369e-06 
1.25e-06 -1.175e-05 -8.93558e-06 
1.5e-06 -1.175e-05 -8.9276e-06 
1.75e-06 -1.175e-05 -8.93004e-06 
2e-06 -1.175e-05 -8.93376e-06 
2.25e-06 -1.175e-05 -8.93136e-06 
2.5e-06 -1.175e-05 -8.93672e-06 
2.75e-06 -1.175e-05 -8.93392e-06 
3e-06 -1.175e-05 -8.93525e-06 
3.25e-06 -1.175e-05 -8.93846e-06 
3.5e-06 -1.175e-05 -8.93489e-06 
3.75e-06 -1.175e-05 -8.93515e-06 
4e-06 -1.175e-05 -8.933e-06 
4.25e-06 -1.175e-05 -8.9346e-06 
4.5e-06 -1.175e-05 -8.92905e-06 
4.75e-06 -1.175e-05 -8.94219e-06 
5e-06 -1.175e-05 -8.93358e-06 
5.25e-06 -1.175e-05 -8.93026e-06 
5.5e-06 -1.175e-05 -8.93374e-06 
5.75e-06 -1.175e-05 -8.93244e-06 
6e-06 -1.175e-05 -8.94182e-06 
6.25e-06 -1.175e-05 -8.93984e-06 
6.5e-06 -1.175e-05 -8.93052e-06 
6.75e-06 -1.175e-05 -8.93875e-06 
7e-06 -1.175e-05 -8.93382e-06 
7.25e-06 -1.175e-05 -8.93002e-06 
7.5e-06 -1.175e-05 -8.93788e-06 
7.75e-06 -1.175e-05 -8.93382e-06 
8e-06 -1.175e-05 -8.92959e-06 
8.25e-06 -1.175e-05 -8.94116e-06 
8.5e-06 -1.175e-05 -8.93645e-06 
8.75e-06 -1.175e-05 -8.93768e-06 
9e-06 -1.175e-05 -8.9321e-06 
9.25e-06 -1.175e-05 -8.94093e-06 
9.5e-06 -1.175e-05 -8.92758e-06 
9.75e-06 -1.175e-05 -8.93116e-06 
1e-05 -1.175e-05 -8.93438e-06 
1.025e-05 -1.175e-05 -8.93321e-06 
1.05e-05 -1.175e-05 -8.93087e-06 
1.075e-05 -1.175e-05 -8.93636e-06 
1.1e-05 -1.175e-05 -8.94356e-06 
1.125e-05 -1.175e-05 -8.93632e-06 
1.15e-05 -1.175e-05 -8.94032e-06 
1.175e-05 -1.175e-05 -8.93346e-06 
1.2e-05 -1.175e-05 -8.9309e-06 
1.225e-05 -1.175e-05 -8.9324e-06 
-1.2e-05 -1.15e-05 -8.93892e-06 
-1.225e-05 -1.15e-05 -8.93477e-06 
-1.175e-05 -1.15e-05 -8.93815e-06 
-1.15e-05 -1.15e-05 -8.93243e-06 
[...]
POINT_DATA 14661
SCALARS Velocities float 1
LOOKUP_TABLE default
-3.51305e-06
-3.43256e-06
-3.26056e-06
-3.26168e-06
-3.653e-06
-3.59447e-06
-3.38787e-06
-3.4556e-06
-3.55386e-06
-3.33757e-06
-3.4522e-06
-3.53042e-06
-3.47526e-06
-3.45426e-06
-3.47263e-06
-3.62254e-06
-3.41031e-06
-3.61753e-06
-3.3715e-06
-3.48623e-06
-3.47941e-06
-3.4814e-06
-3.60866e-06
-3.55306e-06
-3.37757e-06
-3.44439e-06
-3.38578e-06
-3.27237e-06
-3.34993e-06
-3.35229e-06
-3.33842e-06
-3.52052e-06
-3.51599e-06
-3.33447e-06
-3.35935e-06
-3.61336e-06
-3.37847e-06
-3.52154e-06
-3.39534e-06
-3.48666e-06
-3.27409e-06
-3.39269e-06
-3.6902e-06
-3.58534e-06
-3.50691e-06
-3.48052e-06
-3.41661e-06
-3.44657e-06
-3.40465e-06
-3.46645e-06
-3.32089e-06
-3.50122e-06
-3.45264e-06
-3.65286e-06
-3.33534e-06
-3.27913e-06
-3.56234e-06
-3.36418e-06
-3.38912e-06
-3.53792e-06
-3.3842e-06
-3.51867e-06
-3.4724e-06
-3.30116e-06
-3.46896e-06
-3.4135e-06
-3.51795e-06
-3.51962e-06
-3.23673e-06
-3.35282e-06
-3.5465e-06
-3.42113e-06
-3.50441e-06
-3.3085e-06
-3.20204e-06
-3.09021e-06
-3.38953e-06
-3.41705e-06
-3.45458e-06
-3.64033e-06
-3.27676e-06
-3.39902e-06
-3.52984e-06
-3.3365e-06
-3.65082e-06
-3.4353e-06
-3.4612e-06
-3.21121e-06
-3.46498e-06
-3.192e-06
-3.36499e-06
-3.55357e-06
-3.23358e-06
-3.61474e-06
-3.58169e-06
-3.45923e-06
-3.65294e-06
-3.53962e-06
-3.64638e-06
-3.60332e-06
-3.62094e-06
-3.4323e-06
-3.52434e-06
-3.63424e-06
-3.57549e-06
-3.58591e-06
-3.60975e-06
-3.50298e-06
-3.6136e-06
-3.47822e-06
-3.49806e-06
-3.59509e-06
-3.36624e-06
-3.27473e-06
-3.50427e-06
-3.3728e-06
-3.3354e-06
-3.36831e-06
-3.53877e-06
-3.298e-06
-3.28529e-06
-3.22171e-06
-3.47804e-06
-3.43637e-06
-3.53596e-06
-3.40141e-06
-3.31789e-06
-3.27132e-06
-3.28616e-06
-3.29475e-06
-3.53055e-06
-3.50062e-06
-3.41562e-06
-3.49888e-06
-3.36689e-06
-3.46012e-06
-3.43134e-06
-3.21327e-06
-3.24899e-06
-3.24513e-06
-3.45118e-06
-3.45145e-06
-3.57441e-06
-3.41675e-06
-3.40781e-06
-3.33508e-06
-3.46365e-06
-3.32803e-06
-3.66138e-06
-3.46701e-06
-3.55805e-06
-3.48166e-06
-3.36691e-06
-3.39181e-06
-3.39978e-06
-3.49163e-06
-3.42411e-06
-3.35537e-06
-3.40399e-06
-3.31442e-06
-3.55318e-06
-3.58155e-06
-3.51794e-06
-3.38e-06
-3.62781e-06
-3.44866e-06
-3.45602e-06
-3.36083e-06
-3.42962e-06
-3.38742e-06
-3.26604e-06
-3.34337e-06
-3.42429e-06
-3.34576e-06
-3.68159e-06
-3.5198e-06
-3.2641e-06
-3.2496e-06
-3.56054e-06
-3.50544e-06
-3.35612e-06
-3.70203e-06
-3.4021e-06
-3.44521e-06
-3.43457e-06
-3.36508e-06
-3.46792e-06
-3.56964e-06
-3.30989e-06
-3.40527e-06
-3.39701e-06
-3.57639e-06
-3.31695e-06
-3.49501e-06
-3.43788e-06
-3.35822e-06
-3.26056e-06
-3.26168e-06
-3.26882e-06
-3.32749e-06
-3.19605e-06
-3.34437e-06
-3.37635e-06
-3.62088e-06
-3.39387e-06
-3.41216e-06
-3.4797e-06
-3.35951e-06
-3.31745e-06
-3.53523e-06
-3.41187e-06
-3.44276e-06
-3.29761e-06
-3.36407e-06
-3.28195e-06
-3.3225e-06
-3.33625e-06
-3.47531e-06
-3.42687e-06
-3.40069e-06
-3.26435e-06
-3.3885e-06
-3.39876e-06
-3.19388e-06
-3.49483e-06
-3.34444e-06
-3.26506e-06
-3.59754e-06
-3.54318e-06
-3.36683e-06
-3.32502e-06
-3.42362e-06
-3.54335e-06
-3.61958e-06
-3.3647e-06
-3.53375e-06
-3.62258e-06
-3.49093e-06
-3.40452e-06
-3.39606e-06
-3.34991e-06
-3.55634e-06
-3.54165e-06
-3.47614e-06
-3.33609e-06
-3.40653e-06
-3.47995e-06
-3.52663e-06
-3.553e-06
-3.62577e-06
-3.62702e-06
-3.55355e-06
-3.44695e-06
-3.44388e-06
-3.4433e-06
-3.56681e-06
-3.54027e-06
-3.58226e-06
-3.43013e-06
-3.35517e-06
-3.50576e-06
-3.58839e-06
-3.63349e-06
-3.46865e-06
-3.34206e-06
-3.57936e-06
-3.40957e-06
-3.49777e-06
-3.58352e-06
-3.41339e-06
-3.4821e-06
-3.44747e-06
-3.38279e-06
-3.44426e-06
-3.35593e-06
-3.37844e-06
-3.51595e-06
-3.18939e-06
-3.38595e-06
-3.46327e-06
-3.35596e-06
-3.40302e-06
-3.3926e-06
-3.36568e-06
-3.40516e-06
-3.51372e-06
-3.48295e-06
-3.21383e-06
-3.60614e-06
-3.55009e-06
-3.44106e-06
-3.34288e-06
-3.37616e-06
-3.15827e-06
-3.67392e-06
-3.47362e-06
-3.32749e-06
-3.4653e-06
-3.55584e-06
-3.21487e-06
-3.4011e-06
-3.33605e-06
-3.48553e-06
-3.37656e-06
-3.35825e-06
-3.39061e-06
-3.40446e-06
-3.37593e-06
-3.55385e-06
-3.36227e-06
-3.4622e-06
-3.30341e-06
-3.38807e-06
-3.21449e-06
-3.24841e-06
-3.43565e-06
-3.58294e-06
-3.54332e-06
-3.44126e-06
-3.23108e-06
-3.36428e-06
-3.62655e-06
-3.4459e-06
-3.36831e-06
-3.2994e-06
-3.27183e-06
-3.47971e-06
-3.53891e-06
-3.5794e-06
-3.37732e-06
-3.30783e-06
-3.37929e-06
-3.57528e-06
-3.52917e-06
-3.35164e-06
-3.39593e-06
-3.45786e-06
-3.15267e-06
-3.27879e-06
-3.27148e-06
-3.47998e-06
-3.32333e-06
-3.44426e-06
-3.25407e-06
-3.47069e-06
-3.405e-06
-3.50053e-06
-3.47922e-06
-3.56201e-06
-3.38456e-06
-3.39103e-06
-3.51573e-06
-3.44483e-06
-3.38728e-06
-3.82833e-06
-3.65159e-06
-3.55937e-06
-3.56676e-06
-3.45949e-06
-3.51492e-06
-3.64027e-06
-3.45192e-06
-3.28818e-06
-3.28302e-06
-3.36817e-06
-3.45655e-06
-3.3728e-06
-3.48503e-06
-3.3815e-06
-3.42685e-06
-3.55475e-06
-3.35263e-06
-3.39349e-06
-3.33063e-06
-3.28095e-06
-3.58251e-06
-3.39576e-06
-3.32031e-06
-3.32706e-06
-3.20982e-06
-3.44419e-06
-3.43272e-06
-3.47547e-06
-3.40442e-06
-3.54588e-06
-3.69481e-06
-3.21266e-06
-3.41815e-06
-3.49749e-06
-3.41699e-06
-3.30599e-06
-3.60944e-06
-3.33512e-06
-3.42626e-06
-3.33292e-06
-3.55584e-06
-3.44591e-06
-3.38958e-06
-3.51807e-06
-3.32354e-06
-3.39016e-06
-3.3635e-06
-3.48178e-06
-3.50515e-06
-3.56333e-06
-3.45974e-06
-3.25388e-06
-3.12222e-06
-3.25928e-06
-3.22074e-06
-3.18314e-06
-3.11095e-06
-3.342e-06
-3.35005e-06
-3.44913e-06
-3.52671e-06
-3.51407e-06
-3.44628e-06
-3.31179e-06
-3.62287e-06
-3.44631e-06
-3.31696e-06
-3.42765e-06
-3.37729e-06
-3.33033e-06
-3.43684e-06
-3.51997e-06
-3.69488e-06
-3.55593e-06
-3.3029e-06
-3.45191e-06
-3.26828e-06
-3.5093e-06
-3.4546e-06
-3.48956e-06
-3.26242e-06
-3.41083e-06
-3.48091e-06
-3.29905e-06
-3.6015e-06
-3.43935e-06
-3.49835e-06
-3.66507e-06
-3.6153e-06
-3.45043e-06
-3.57014e-06
-3.5733e-06
-3.57043e-06
-3.31861e-06
-3.55642e-06
-3.5312e-06
-3.41343e-06
-3.32969e-06
-3.54887e-06
-3.32981e-06
-3.36956e-06
-3.3016e-06
-3.47458e-06
-3.37854e-06
-3.69967e-06
-3.49909e-06
-3.41921e-06
-3.50209e-06
-3.23985e-06
-3.39975e-06
-3.29373e-06
-3.57863e-06
-3.58935e-06
-3.49775e-06
-3.42476e-06
-3.50942e-06
-3.34663e-06
-3.41466e-06
-3.51545e-06
-3.7041e-06
-3.38474e-06
-3.28076e-06
-3.35485e-06
-3.26908e-06
-3.30819e-06
-3.31724e-06
-3.59798e-06
-3.46627e-06
-3.40488e-06
-3.52179e-06
-3.58178e-06
-3.48857e-06
-3.44514e-06
-3.5655e-06
-3.47836e-06
-3.50187e-06
-3.66579e-06
-3.39575e-06
-3.19338e-06
-3.38958e-06
-3.56477e-06
-3.56768e-06
-3.52802e-06
-3.45744e-06
-3.45284e-06
-3.53177e-06
-3.36158e-06
-3.51315e-06
-3.44719e-06
-3.48451e-06
-3.51104e-06
-3.52359e-06
-3.54248e-06
-3.36718e-06
-3.37303e-06
-3.65933e-06
-3.61083e-06
-3.29148e-06
-3.35574e-06
-3.51382e-06
-3.46185e-06
-3.26235e-06
-3.33196e-06
-3.74753e-06
-3.36556e-06
-3.41524e-06
-3.55e-06
-3.52948e-06
-3.40954e-06
-3.39339e-06
-3.36937e-06
-3.42412e-06
-3.47507e-06
-3.23382e-06
-3.47881e-06
-3.5538e-06
-3.48028e-06
-3.52439e-06
-3.36587e-06
-3.23651e-06
-3.48725e-06
-3.49044e-06
-3.42957e-06
-3.44076e-06
-3.37784e-06
-3.45932e-06
-3.52399e-06
-3.52054e-06
-3.3101e-06
-3.26488e-06
-3.55521e-06
-3.5969e-06
-3.53874e-06
-3.56339e-06
-3.50521e-06
-3.45571e-06
-3.36537e-06
-3.44639e-06
-3.38939e-06
-3.18376e-06
-3.43653e-06
-3.39737e-06
-3.19048e-06
-3.46823e-06
-3.59034e-06
-3.48332e-06
-3.50043e-06
-3.38253e-06
-3.56277e-06
-3.47212e-06
-3.2309e-06
-3.43921e-06
-3.53756e-06
-3.5702e-06
-3.53582e-06
-3.46806e-06
-3.6759e-06
-3.54803e-06
-3.52643e-06
-3.2489e-06
-3.3455e-06
-3.5104e-06
-3.50531e-06
-3.41729e-06
-3.29889e-06
-3.46984e-06
-3.59561e-06
-3.28594e-06
-3.40445e-06
-3.55483e-06
-3.3479e-06
-3.27736e-06
-3.52477e-06
-3.61232e-06
-3.34354e-06
-3.75711e-06
-3.56875e-06
-3.3795e-06
-3.56768e-06
-3.55828e-06
-3.41464e-06
-3.52177e-06
-3.63747e-06
-3.54084e-06
-3.64614e-06
-3.5395e-06
-3.57359e-06
-3.5035e-06
-3.39835e-06
-3.64753e-06
-3.64834e-06
-3.55554e-06
-3.53025e-06
-3.41841e-06
-3.49725e-06
-3.37076e-06
-3.37877e-06
-3.39162e-06
-3.35893e-06
-3.40134e-06
-3.49869e-06
-3.54314e-06
-3.42965e-06
-3.16324e-06
-3.27161e-06
-3.40318e-06
-3.60204e-06
-3.43353e-06
-3.39642e-06
-3.18445e-06
-3.47979e-06
-3.53513e-06
-3.31479e-06
-3.45134e-06
-3.6023e-06
-3.47156e-06
-3.5544e-06
-3.28461e-06
-3.26549e-06
-3.34422e-06
-3.41708e-06
-3.29773e-06
-3.2487e-06
-3.34504e-06
-3.42722e-06
-3.62114e-06
-3.67385e-06
-3.32416e-06
-3.48904e-06
-3.60807e-06
-3.46287e-06
-3.51156e-06
-3.38521e-06
-3.49515e-06
-3.65756e-06
-3.45438e-06
-3.48488e-06
-3.46989e-06
-3.28105e-06
-3.37087e-06
-3.54413e-06
-3.52539e-06
-3.4202e-06
-3.48238e-06
-3.57551e-06
-3.71574e-06
-3.49571e-06
-3.65154e-06
-3.4304e-06
-3.38389e-06
-3.43341e-06
-3.71838e-06
-3.75241e-06
-3.41578e-06
-3.22e-06
-3.50282e-06
-3.45058e-06
-3.38901e-06
-3.36531e-06
-3.44731e-06
-3.69162e-06
-3.43813e-06
-3.55279e-06
-3.36922e-06
-3.32163e-06
-3.47161e-06
-3.14557e-06
-3.32616e-06
-3.54923e-06
-3.20895e-06
-3.30788e-06
-3.47089e-06
-3.47391e-06
-3.51358e-06
-3.52488e-06
-3.54458e-06
-3.55808e-06
-3.41464e-06
-3.35657e-06
-3.30195e-06
-3.45187e-06
-3.46756e-06
-3.60661e-06
-3.56662e-06
-3.45206e-06
-3.48277e-06
-3.65847e-06
-3.38704e-06
-3.39136e-06
-3.26459e-06
-3.28532e-06
-3.45268e-06
-3.4789e-06
-3.64434e-06
-3.32057e-06
-3.43786e-06
-3.4313e-06
-3.33679e-06
-3.35499e-06
-3.31893e-06
-3.33473e-06
-3.23007e-06
-3.43918e-06
-3.3618e-06
-3.49516e-06
-3.39423e-06
-3.36946e-06
-3.34556e-06
-3.34708e-06
-3.60048e-06
-3.54426e-06
-3.47314e-06
-3.53199e-06
-3.47742e-06
-3.2089e-06
-3.41014e-06
-3.17781e-06
-3.40564e-06
-3.60094e-06
-3.42766e-06
-3.39696e-06
-3.25233e-06
-3.37887e-06
-3.36094e-06
-3.52854e-06
-3.46929e-06
-3.42055e-06
-3.58284e-06
-3.51177e-06
-3.28164e-06
-3.19217e-06
-3.34049e-06
-3.3779e-06
-3.38579e-06
-3.39986e-06
-3.38384e-06
-3.7277e-06
-3.72097e-06
-3.35372e-06
-3.58583e-06
-3.44988e-06
-3.39791e-06
-3.42381e-06
-3.33991e-06
-3.48102e-06
-3.70043e-06
-3.69051e-06
-3.31278e-06
-3.48487e-06
-3.39994e-06
-3.3628e-06
-3.44139e-06
-3.33632e-06
-3.50785e-06
-3.24218e-06
-3.40028e-06
-3.2453e-06
-3.39028e-06
-3.29641e-06
-3.50009e-06
-3.41414e-06
-3.34763e-06
-3.33059e-06
-3.43027e-06
-3.41163e-06
-3.38145e-06
-3.32768e-06
-3.65439e-06
-3.27992e-06
-3.23999e-06
-3.38501e-06
-3.50063e-06
-3.49979e-06
-3.48419e-06
-3.4169e-06
-3.39268e-06
-3.30195e-06
-3.62534e-06
-3.30572e-06
-3.19869e-06
-3.44641e-06
-3.45597e-06
-3.65944e-06
-3.52419e-06
-3.52244e-06
-3.49974e-06
-3.5518e-06
-3.31898e-06
-3.46033e-06
-3.37629e-06
-3.48595e-06
-3.51354e-06
-3.33934e-06
-3.38612e-06
-3.4406e-06
-3.54406e-06
-3.48511e-06
-3.46255e-06
-3.36989e-06
-3.47975e-06
-3.46845e-06
-3.30899e-06
-3.37475e-06
-3.52337e-06
-3.43539e-06
-3.53783e-06
-3.2609e-06
-3.16115e-06
-3.42279e-06
-3.40718e-06
-3.34771e-06
-3.49113e-06
-3.58029e-06
-3.4132e-06
-3.42624e-06
-3.52863e-06
-3.58238e-06
-3.62448e-06
-3.41381e-06
-3.43762e-06
-3.41114e-06
-3.52097e-06
-3.36457e-06
-3.3644e-06
-3.27902e-06
-3.46611e-06
-3.29584e-06
-3.39918e-06
-3.32722e-06
-3.32423e-06
-3.31872e-06
-3.29867e-06
-3.41547e-06
-3.37686e-06
-3.30163e-06
-3.59516e-06
-3.40486e-06
-3.4301e-06
-3.56327e-06
-3.34475e-06
-3.35191e-06
-3.30512e-06
-3.23708e-06
-3.46897e-06
-3.41191e-06
-3.42854e-06
-3.35352e-06
-3.39542e-06
-3.53532e-06
-3.42868e-06
-3.49302e-06
-3.49103e-06
-3.43952e-06
-3.37705e-06
-3.44305e-06
-3.27325e-06
-3.39877e-06
-3.48825e-06
-3.5282e-06
-3.37482e-06
-3.44555e-06
-3.56836e-06
-3.55483e-06
-3.32497e-06
-3.33265e-06
-3.66713e-06
-3.68439e-06
-3.50968e-06
-3.28791e-06
-3.42902e-06
-3.38841e-06
-3.49896e-06
-3.5284e-06
-3.34368e-06
-3.4154e-06
-3.30572e-06
-3.44391e-06
-3.47527e-06
-3.43916e-06
-3.77635e-06
-3.64754e-06
-3.62647e-06
-3.59189e-06
-3.43328e-06
-3.39753e-06
-3.5381e-06
-3.45558e-06
-3.31796e-06
-3.34669e-06
-3.34518e-06
-3.4908e-06
-3.42625e-06
-3.53021e-06
-3.51425e-06
-3.50616e-06
-3.48598e-06
-3.50238e-06
-3.6155e-06
-3.36508e-06
-3.42663e-06
-3.46376e-06
-3.46669e-06
-3.69943e-06
-3.44341e-06
-3.51301e-06
-3.46304e-06
-3.40529e-06
-3.37709e-06
-3.38681e-06
-3.29861e-06
-3.46247e-06
-3.60186e-06
-3.77157e-06
-3.47709e-06
-3.33456e-06
-3.3728e-06
-3.31883e-06
-3.47255e-06
-3.50085e-06
-3.44019e-06
-3.48629e-06
-3.40299e-06
-3.39995e-06
-3.2384e-06
-3.54717e-06
-3.4583e-06
-3.50943e-06
-3.44296e-06
-3.56876e-06
-3.41287e-06
-3.37761e-06
-3.351e-06
-3.37649e-06
-3.33477e-06
-3.37406e-06
-3.48268e-06
-3.50939e-06
-3.30964e-06
-3.31372e-06
-3.30397e-06
-3.37927e-06
-3.47955e-06
-3.54857e-06
-3.35183e-06
-3.51316e-06
-3.50262e-06
-3.44199e-06
-3.47176e-06
-3.53258e-06
-3.38044e-06
-3.32698e-06
-3.36223e-06
-3.42134e-06
-3.43917e-06
-3.39121e-06
-3.30398e-06
-3.36398e-06
-3.36948e-06
-3.407e-06
-3.50543e-06
-3.38452e-06
-3.54268e-06
-3.30664e-06
-3.38173e-06
-3.29468e-06
-3.42993e-06
-3.52842e-06
-3.60503e-06
-3.50853e-06
-3.39058e-06
-3.47337e-06
-3.30377e-06
-3.34458e-06
-3.42873e-06
-3.47527e-06
-3.49988e-06
-3.56408e-06
-3.47261e-06
-3.65258e-06
-3.6288e-06
-3.48577e-06
-3.45968e-06
-3.26366e-06
-3.2806e-06
-3.52002e-06
-3.60767e-06
-3.37898e-06
-3.36831e-06
-3.28895e-06
-3.4782e-06
-3.40224e-06
-3.4533e-06
-3.51451e-06
-3.45492e-06
-3.65741e-06
-3.41441e-06
-3.42565e-06
-3.36298e-06
-3.38297e-06
-3.34515e-06
-3.37519e-06
-3.58972e-06
-3.48932e-06
-3.63861e-06
-3.70998e-06
-3.53994e-06
-3.33029e-06
-3.3683e-06
-3.33382e-06
-3.32395e-06
-3.51763e-06
-3.43955e-06
-3.10063e-06
-3.24853e-06
-3.62668e-06
-3.40159e-06
-3.41501e-06
-3.43991e-06
-3.39255e-06
-3.39584e-06
-3.54341e-06
-3.62394e-06
-3.27692e-06
-3.27873e-06
-3.38313e-06
-3.45932e-06
-3.3543e-06
-3.46314e-06
-3.53234e-06
-3.30714e-06
-3.50034e-06
-3.46133e-06
-3.40864e-06
-3.5533e-06
-3.27353e-06
-3.35952e-06
-3.51578e-06
-3.38561e-06
-3.34009e-06
-3.34341e-06
-3.44816e-06
-3.47195e-06
-3.35926e-06
-3.58203e-06
-3.61122e-06
-3.60362e-06
-3.51797e-06
-3.29145e-06
-3.36594e-06
-3.18211e-06
-3.28074e-06
-3.36036e-06
-3.49973e-06
-3.45405e-06
-3.42453e-06
-3.54211e-06
-3.57237e-06
-3.41942e-06
-3.41356e-06
-3.35708e-06
-3.4915e-06
-3.39144e-06
-3.31654e-06
-3.2109e-06
-3.22222e-06
-3.4277e-06
-3.48952e-06
-3.58831e-06
-3.51962e-06
-3.24821e-06
-3.22283e-06
-3.20027e-06
-3.32903e-06
-3.56408e-06
-3.41549e-06
-3.36632e-06
-3.35926e-06
-3.47797e-06
-3.47977e-06
-3.25625e-06
-3.33494e-06
-3.34029e-06
-3.29468e-06
-3.32593e-06
-3.37999e-06
-3.45242e-06
-3.26242e-06
-3.254e-06
-3.33948e-06
-3.48364e-06
-3.43837e-06
-3.34748e-06
-3.38046e-06
-3.69692e-06
-3.51886e-06
-3.35753e-06
-3.35043e-06
-3.48979e-06
-3.42502e-06
-3.34746e-06
-3.59508e-06
-3.51846e-06
-3.52567e-06
-3.54899e-06
-3.55268e-06
-3.51297e-06
-3.52558e-06
-3.38024e-06
-3.55709e-06
-3.30321e-06
-3.36841e-06
-3.36867e-06
-3.46584e-06
-3.42415e-06
-3.37144e-06
-3.45332e-06
-3.57788e-06
-3.37919e-06
-3.33546e-06
-3.38022e-06
-3.31927e-06
-3.26918e-06
-3.40029e-06
-3.22471e-06
-3.64937e-06
-3.63227e-06
-3.4456e-06
-3.32065e-06
-3.32755e-06
-3.41675e-06
-3.43575e-06
-3.45353e-06
-3.52366e-06
-3.30518e-06
-3.27628e-06
-3.45236e-06
-3.50912e-06
-3.33554e-06
-3.36885e-06
-3.33956e-06
-3.34034e-06
-3.42458e-06
-3.33185e-06
-3.5276e-06
-3.63275e-06
-3.80443e-06
-3.63218e-06
-3.36814e-06
-3.33928e-06
-3.74433e-06
-3.42438e-06
-3.42983e-06
-3.48941e-06
-3.25592e-06
-3.34564e-06
-3.36959e-06
-3.33521e-06
-3.45328e-06
-3.38851e-06
-3.45752e-06
-3.48019e-06
-3.36164e-06
-3.41907e-06
-3.27051e-06
-3.46223e-06
-3.63945e-06
-3.6699e-06
-3.522e-06
-3.39938e-06
-3.41863e-06
-3.18133e-06
-3.36996e-06
-3.36632e-06
-3.42895e-06
-3.38874e-06
-3.42893e-06
-3.71685e-06
-3.5022e-06
-3.44904e-06
-3.48804e-06
-3.47017e-06
-3.56681e-06
-3.36872e-06
-3.25179e-06
-3.31796e-06
-3.31688e-06
-3.43731e-06
-3.59428e-06
-3.67284e-06
-3.40108e-06
-3.566e-06
-3.28281e-06
-3.62805e-06
-3.61492e-06
-3.35267e-06
-3.51716e-06
-3.55757e-06
-3.32359e-06
-3.36188e-06
-3.26153e-06
-3.17388e-06
-3.24361e-06
-3.35453e-06
-3.5277e-06
-3.42181e-06
-3.39405e-06
-3.43009e-06
-3.63896e-06
-3.51203e-06
-3.32376e-06
-3.49351e-06
-3.33583e-06
-3.39344e-06
-3.45872e-06
-3.50051e-06
-3.55592e-06
-3.47136e-06
-3.49437e-06
-3.59332e-06
-3.52898e-06
-3.30037e-06
-3.40227e-06
-3.44671e-06
-3.51895e-06
-3.70506e-06
-3.30267e-06
-3.27008e-06
-3.46467e-06
-3.63984e-06
-3.57681e-06
-3.43056e-06
-3.5558e-06
-3.37469e-06
-3.48134e-06
-3.44867e-06
-3.59662e-06
-3.43169e-06
-3.42417e-06
-3.45653e-06
-3.30802e-06
-3.36402e-06
-3.32195e-06
-3.56732e-06
-3.49409e-06
-3.39378e-06
-3.47438e-06
-3.33876e-06
-3.39118e-06
-3.42861e-06
-3.5299e-06
-3.38346e-06
-3.35125e-06
-3.44866e-06
-3.3167e-06
-3.26951e-06
-3.32527e-06
-3.47282e-06
-3.21613e-06
-3.3522e-06
-3.44726e-06
-3.49101e-06
-3.61772e-06
-3.41154e-06
-3.4568e-06
-3.35899e-06
-3.38403e-06
-3.46479e-06
-3.38841e-06
-3.29182e-06
-3.2489e-06
-3.49796e-06
-3.38874e-06
-3.43703e-06
-3.56678e-06
-3.53135e-06
-3.33477e-06
-3.41504e-06
-3.57712e-06
-3.24892e-06
-3.25387e-06
-3.41549e-06
-3.3997e-06
-3.44641e-06
-3.56781e-06
-3.32802e-06
-3.61139e-06
-3.34261e-06
-3.20828e-06
-3.35439e-06
-3.57533e-06
-3.41942e-06
-3.36963e-06
-3.36367e-06
-3.50569e-06
-3.48164e-06
-3.54717e-06
-3.44445e-06
-3.76534e-06
-3.58837e-06
-3.44206e-06
-3.48299e-06
-3.45281e-06
-3.67878e-06
-3.67482e-06
-3.26037e-06
-3.31294e-06
-3.49612e-06
-3.45568e-06
-3.23291e-06
-3.42599e-06
-3.37619e-06
-3.44877e-06
-3.52582e-06
-3.43629e-06
-3.51278e-06
-3.2547e-06
-3.44231e-06
-3.48127e-06
-3.53121e-06
-3.33595e-06
-3.41397e-06
-3.43438e-06
-3.40538e-06
-3.56593e-06
-3.43532e-06
-3.36233e-06
-3.26249e-06
-3.46808e-06
-3.6138e-06
-3.35667e-06
-3.55524e-06
-3.5925e-06
-3.37613e-06
-3.3457e-06
-3.57694e-06
-3.52444e-06
-3.4901e-06
-3.5014e-06
-3.60803e-06
-3.5949e-06
-3.344e-06
-3.48944e-06
-3.52361e-06
-3.2326e-06
-3.33659e-06
-3.53737e-06
-3.6823e-06
-3.50503e-06
-3.41272e-06
-3.28403e-06
-3.24419e-06
-3.49086e-06
-3.29805e-06
-3.39559e-06
-3.39712e-06
-3.50013e-06
-3.37303e-06
-3.34002e-06
-3.40856e-06
-3.49205e-06
-3.4459e-06
-3.26839e-06
-3.3951e-06
-3.2786e-06
-3.38114e-06
-3.51306e-06
-3.33152e-06
-3.41527e-06
-3.48471e-06
-3.76313e-06
-3.56678e-06
-3.45737e-06
-3.48458e-06
-3.41162e-06
-3.47935e-06
-3.4236e-06
-3.47911e-06
-3.49972e-06
-3.28764e-06
-3.25373e-06
-3.36515e-06
-3.71381e-06
-3.64167e-06
-3.43312e-06
-3.41108e-06
-3.358e-06
-3.34936e-06
-3.36432e-06
-3.45948e-06
-3.51544e-06
-3.30745e-06
-3.39532e-06
-3.46801e-06
-3.55745e-06
-3.43128e-06
-3.263e-06
-3.40386e-06
-3.74e-06
-3.70856e-06
-3.49269e-06
-3.44287e-06
-3.35425e-06
-3.50203e-06
-3.54711e-06
-3.2905e-06
-3.55136e-06
-3.44294e-06
-3.43179e-06
-3.40228e-06
-3.25633e-06
-3.65461e-06
-3.33163e-06
-3.36235e-06
-3.39906e-06
-3.48018e-06
-3.43731e-06
-3.63281e-06
-3.62138e-06
-3.42412e-06
-3.52366e-06
-3.51993e-06
-3.67564e-06
-3.57371e-06
-3.44071e-06
-3.15006e-06
-3.37506e-06
-3.43553e-06
-3.47084e-06
-3.59628e-06
-3.49668e-06
-3.41259e-06
-3.38189e-06
-3.5929e-06
-3.54299e-06
-3.46629e-06
-3.29926e-06
-3.44251e-06
-3.70568e-06
-3.72694e-06
-3.47756e-06
-3.35785e-06
-3.54418e-06
-3.47159e-06
-3.52616e-06
-3.56017e-06
-3.52961e-06
-3.65436e-06
-3.46633e-06
-3.36267e-06
-3.61733e-06
-3.37548e-06
-3.35565e-06
-3.62578e-06
-3.34485e-06
-3.45069e-06
-3.53499e-06
-3.41698e-06
-3.4099e-06
-3.56336e-06
-3.67801e-06
-3.52699e-06
-3.61498e-06
-3.3228e-06
-3.35373e-06
-3.50484e-06
-3.64967e-06
-3.27359e-06
-3.3802e-06
-3.40288e-06
-3.48458e-06
-3.47232e-06
-3.50716e-06
-3.35811e-06
-3.64482e-06
-3.68883e-06
-3.58012e-06
-3.42305e-06
-3.28588e-06
-3.33252e-06
-3.40094e-06
-3.41976e-06
-3.28464e-06
-3.50064e-06
-3.49182e-06
-3.39965e-06
-3.28412e-06
-3.21094e-06
-3.44302e-06
-3.54185e-06
-3.58907e-06
-3.38048e-06
-3.3199e-06
-3.40792e-06
-3.506e-06
-3.4052e-06
-3.38724e-06
-3.52609e-06
-3.56454e-06
-3.47135e-06
-3.46966e-06
-3.33843e-06
-3.37067e-06
-3.57745e-06
-3.25579e-06
-3.43672e-06
-3.57489e-06
-3.53763e-06
-3.56939e-06
-3.68169e-06
-3.48253e-06
-3.38965e-06
-3.33866e-06
-3.26651e-06
-3.42662e-06
-3.45585e-06
-3.47898e-06
-3.39904e-06
-3.2331e-06
-3.44816e-06
-3.59735e-06
-3.52916e-06
-3.30257e-06
-3.37233e-06
-3.39729e-06
-3.50596e-06
-3.65753e-06
-3.43272e-06
-3.37913e-06
-3.39409e-06
-3.53966e-06
-3.5747e-06