# vtk DataFile Version 2.0
3D Surface
ASCII
DATASET UNSTRUCTURED_GRID
POINTS 14801 float
-1.2e-05 -1.225e-05 -8.75325e-06 
-1.2e-05 -1.2e-05 -8.75451e-06 
-1.225e-05 -1.225e-05 -8.75355e-06 
-1.225e-05 -1.2e-05 -8.75741e-06 
-1.175e-05 -1.225e-05 -8.7648e-06 
-1.175e-05 -1.2e-05 -8.75544e-06 
-1.15e-05 -1.225e-05 -8.757e-06 
-1.15e-05 -1.2e-05 -8.75746e-06 
-1.125e-05 -1.225e-05 -8.76128e-06 
-1.125e-05 -1.2e-05 -8.76498e-06 
-1.1e-05 -1.225e-05 -8.76499e-06 
-1.1e-05 -1.2e-05 -8.76383e-06 
-1.075e-05 -1.225e-05 -8.76727e-06 
-1.075e-05 -1.2e-05 -8.76171e-06 
-1.05e-05 -1.225e-05 -8.7605e-06 
-1.05e-05 -1.2e-05 -8.75942e-06 
-1.025e-05 -1.225e-05 -8.76183e-06 
-1.025e-05 -1.2e-05 -8.76398e-06 
-1e-05 -1.225e-05 -8.76568e-06 
-1e-05 -1.2e-05 -8.76225e-06 
-9.75e-06 -1.225e-05 -8.75343e-06 
-9.75e-06 -1.2e-05 -8.75854e-06 
-9.5e-06 -1.225e-05 -8.75899e-06 
-9.5e-06 -1.2e-05 -8.762e-06 
-9.25e-06 -1.225e-05 -8.75806e-06 
-9.25e-06 -1.2e-05 -8.75357e-06 
-9e-06 -1.225e-05 -8.75921e-06 
-9e-06 -1.2e-05 -8.75961e-06 
-8.75e-06 -1.225e-05 -8.76121e-06 
-8.75e-06 -1.2e-05 -8.76287e-06 
-8.5e-06 -1.225e-05 -8.7677e-06 
-8.5e-06 -1.2e-05 -8.76968e-06 
-8.25e-06 -1.225e-05 -8.76471e-06 
-8.25e-06 -1.2e-05 -8.76222e-06 
-8e-06 -1.225e-05 -8.76569e-06 
-8e-06 -1.2e-05 -8.75979e-06 
-7.75e-06 -1.225e-05 -8.76666e-06 
-7.75e-06 -1.2e-05 -8.76085e-06 
-7.5e-06 -1.225e-05 -8.75823e-06 
-7.5e-06 -1.2e-05 -8.76206e-06 
-7.25e-06 -1.225e-05 -8.76303e-06 
-7.25e-06 -1.2e-05 -8.76094e-06 
-7e-06 -1.225e-05 -8.76506e-06 
-7e-06 -1.2e-05 -8.76243e-06 
-6.75e-06 -1.225e-05 -8.76319e-06 
-6.75e-06 -1.2e-05 -8.76132e-06 
-6.5e-06 -1.225e-05 -8.75418e-06 
-6.5e-06 -1.2e-05 -8.7579e-06 
-6.25e-06 -1.225e-05 -8.76042e-06 
-6.25e-06 -1.2e-05 -8.75241e-06 
-6e-06 -1.225e-05 -8.76051e-06 
-6e-06 -1.2e-05 -8.76147e-06 
-5.75e-06 -1.225e-05 -8.75519e-06 
-5.75e-06 -1.2e-05 -8.76134e-06 
-5.5e-06 -1.225e-05 -8.75705e-06 
-5.5e-06 -1.2e-05 -8.76385e-06 
-5.25e-06 -1.225e-05 -8.766e-06 
-5.25e-06 -1.2e-05 -8.77078e-06 
-5e-06 -1.225e-05 -8.7613e-06 
-5e-06 -1.2e-05 -8.76008e-06 
-4.75e-06 -1.225e-05 -8.76233e-06 
-4.75e-06 -1.2e-05 -8.76088e-06 
-4.5e-06 -1.225e-05 -8.76779e-06 
-4.5e-06 -1.2e-05 -8.76577e-06 
-4.25e-06 -1.225e-05 -8.76451e-06 
-4.25e-06 -1.2e-05 -8.76326e-06 
-4e-06 -1.225e-05 -8.76086e-06 
-4e-06 -1.2e-05 -8.76583e-06 
-3.75e-06 -1.225e-05 -8.76361e-06 
-3.75e-06 -1.2e-05 -8.75956e-06 
-3.5e-06 -1.225e-05 -8.75955e-06 
-3.5e-06 -1.2e-05 -8.76167e-06 
-3.25e-06 -1.225e-05 -8.75628e-06 
-3.25e-06 -1.2e-05 -8.76543e-06 
-3e-06 -1.225e-05 -8.75798e-06 
-3e-06 -1.2e-05 -8.76069e-06 
-2.75e-06 -1.225e-05 -8.76236e-06 
-2.75e-06 -1.2e-05 -8.7616e-06 
-2.5e-06 -1.225e-05 -8.76163e-06 
-2.5e-06 -1.2e-05 -8.75628e-06 
-2.25e-06 -1.225e-05 -8.76586e-06 
-2.25e-06 -1.2e-05 -8.7656e-06 
-2e-06 -1.225e-05 -8.75373e-06 
-2e-06 -1.2e-05 -8.76675e-06 
-1.75e-06 -1.225e-05 -8.76107e-06 
-1.75e-06 -1.2e-05 -8.76499e-06 
-1.5e-06 -1.225e-05 -8.76087e-06 
-1.5e-06 -1.2e-05 -8.76259e-06 
-1.25e-06 -1.225e-05 -8.75839e-06 
-1.25e-06 -1.2e-05 -8.76092e-06 
-1e-06 -1.225e-05 -8.76098e-06 
-1e-06 -1.2e-05 -8.76258e-06 
-7.5e-07 -1.225e-05 -8.76174e-06 
-7.5e-07 -1.2e-05 -8.76136e-06 
-5e-07 -1.225e-05 -8.76691e-06 
-5e-07 -1.2e-05 -8.76462e-06 
-2.5e-07 -1.225e-05 -8.75936e-06 
-2.5e-07 -1.2e-05 -8.76712e-06 
-3.73845e-09 -1.2e-05 -8.75e-06 
0 -1.225e-05 -8.75785e-06 
0 -1.2008e-05 -8.75e-06 
2.5e-07 -1.2e-05 -8.75545e-06 
1.13876e-08 -1.2e-05 -8.75e-06 
2.5e-07 -1.225e-05 -8.76538e-06 
5e-07 -1.225e-05 -8.76319e-06 
5e-07 -1.2e-05 -8.76061e-06 
7.5e-07 -1.225e-05 -8.75668e-06 
7.5e-07 -1.2e-05 -8.75876e-06 
1e-06 -1.225e-05 -8.75571e-06 
1e-06 -1.2e-05 -8.7639e-06 
1.25e-06 -1.225e-05 -8.75245e-06 
1.25e-06 -1.2e-05 -8.7685e-06 
1.5e-06 -1.225e-05 -8.75847e-06 
1.5e-06 -1.2e-05 -8.76274e-06 
1.75e-06 -1.225e-05 -8.76139e-06 
1.75e-06 -1.2e-05 -8.76447e-06 
2e-06 -1.225e-05 -8.76434e-06 
2e-06 -1.2e-05 -8.75874e-06 
2.25e-06 -1.225e-05 -8.76147e-06 
2.25e-06 -1.2e-05 -8.75538e-06 
2.5e-06 -1.225e-05 -8.76307e-06 
2.5e-06 -1.2e-05 -8.76079e-06 
2.75e-06 -1.225e-05 -8.75959e-06 
2.75e-06 -1.2e-05 -8.75558e-06 
3e-06 -1.225e-05 -8.75871e-06 
3e-06 -1.2e-05 -8.76068e-06 
3.25e-06 -1.225e-05 -8.75742e-06 
3.25e-06 -1.2e-05 -8.75914e-06 
3.5e-06 -1.225e-05 -8.75773e-06 
3.5e-06 -1.2e-05 -8.76068e-06 
3.75e-06 -1.225e-05 -8.75601e-06 
3.75e-06 -1.2e-05 -8.76483e-06 
4e-06 -1.225e-05 -8.7671e-06 
4e-06 -1.2e-05 -8.76015e-06 
4.25e-06 -1.225e-05 -8.76702e-06 
4.25e-06 -1.2e-05 -8.76166e-06 
4.5e-06 -1.225e-05 -8.75849e-06 
4.5e-06 -1.2e-05 -8.75701e-06 
4.75e-06 -1.225e-05 -8.75745e-06 
4.75e-06 -1.2e-05 -8.75834e-06 
5e-06 -1.225e-05 -8.76098e-06 
5e-06 -1.2e-05 -8.7583e-06 
5.25e-06 -1.225e-05 -8.76156e-06 
5.25e-06 -1.2e-05 -8.75837e-06 
5.5e-06 -1.225e-05 -8.76715e-06 
5.5e-06 -1.2e-05 -8.76499e-06 
5.75e-06 -1.225e-05 -8.75927e-06 
5.75e-06 -1.2e-05 -8.76109e-06 
6e-06 -1.225e-05 -8.75738e-06 
6e-06 -1.2e-05 -8.76235e-06 
6.25e-06 -1.225e-05 -8.764e-06 
6.25e-06 -1.2e-05 -8.76254e-06 
6.5e-06 -1.225e-05 -8.76362e-06 
6.5e-06 -1.2e-05 -8.77122e-06 
6.75e-06 -1.225e-05 -8.75708e-06 
6.75e-06 -1.2e-05 -8.77475e-06 
7e-06 -1.225e-05 -8.76356e-06 
7e-06 -1.2e-05 -8.76092e-06 
7.25e-06 -1.225e-05 -8.76298e-06 
7.25e-06 -1.2e-05 -8.75289e-06 
7.5e-06 -1.225e-05 -8.75655e-06 
7.5e-06 -1.2e-05 -8.75416e-06 
7.75e-06 -1.225e-05 -8.75893e-06 
7.75e-06 -1.2e-05 -8.75517e-06 
8e-06 -1.225e-05 -8.75469e-06 
8e-06 -1.2e-05 -8.75928e-06 
8.25e-06 -1.225e-05 -8.76803e-06 
8.25e-06 -1.2e-05 -8.7734e-06 
8.5e-06 -1.225e-05 -8.75796e-06 
8.5e-06 -1.2e-05 -8.75969e-06 
8.75e-06 -1.225e-05 -8.75458e-06 
8.75e-06 -1.2e-05 -8.75723e-06 
9e-06 -1.225e-05 -8.75754e-06 
9e-06 -1.2e-05 -8.75754e-06 
9.25e-06 -1.225e-05 -8.76586e-06 
9.25e-06 -1.2e-05 -8.76639e-06 
9.5e-06 -1.225e-05 -8.76378e-06 
9.5e-06 -1.2e-05 -8.75837e-06 
9.75e-06 -1.225e-05 -8.77183e-06 
9.75e-06 -1.2e-05 -8.76185e-06 
1e-05 -1.225e-05 -8.75894e-06 
1e-05 -1.2e-05 -8.76153e-06 
1.025e-05 -1.225e-05 -8.76119e-06 
1.025e-05 -1.2e-05 -8.75918e-06 
1.05e-05 -1.225e-05 -8.76095e-06 
1.05e-05 -1.2e-05 -8.75556e-06 
1.075e-05 -1.225e-05 -8.75898e-06 
1.075e-05 -1.2e-05 -8.75522e-06 
1.1e-05 -1.225e-05 -8.75845e-06 
1.1e-05 -1.2e-05 -8.76149e-06 
1.125e-05 -1.225e-05 -8.76342e-06 
1.125e-05 -1.2e-05 -8.76151e-06 
1.15e-05 -1.225e-05 -8.76964e-06 
1.15e-05 -1.2e-05 -8.76891e-06 
1.175e-05 -1.225e-05 -8.7651e-06 
1.175e-05 -1.2e-05 -8.76619e-06 
1.2e-05 -1.225e-05 -8.75249e-06 
1.2e-05 -1.2e-05 -8.75131e-06 
1.225e-05 -1.225e-05 -8.75355e-06 
1.225e-05 -1.2e-05 -8.75741e-06 
-1.2e-05 -1.175e-05 -8.75644e-06 
-1.225e-05 -1.175e-05 -8.76214e-06 
-1.175e-05 -1.175e-05 -8.76329e-06 
-1.15e-05 -1.175e-05 -8.76344e-06 
-1.125e-05 -1.175e-05 -8.75591e-06 
-1.1e-05 -1.175e-05 -8.76421e-06 
-1.075e-05 -1.175e-05 -8.75963e-06 
-1.05e-05 -1.175e-05 -8.7567e-06 
-1.025e-05 -1.175e-05 -8.75731e-06 
-1e-05 -1.175e-05 -8.75971e-06 
-9.75e-06 -1.175e-05 -8.76107e-06 
-9.5e-06 -1.175e-05 -8.76559e-06 
-9.25e-06 -1.175e-05 -8.75861e-06 
-9e-06 -1.175e-05 -8.76521e-06 
-8.75e-06 -1.175e-05 -8.75456e-06 
-8.5e-06 -1.175e-05 -8.75655e-06 
-8.25e-06 -1.175e-05 -8.75746e-06 
-8e-06 -1.175e-05 -8.75916e-06 
-7.75e-06 -1.175e-05 -8.76425e-06 
-7.5e-06 -1.175e-05 -8.76641e-06 
-7.25e-06 -1.175e-05 -8.75968e-06 
-7e-06 -1.175e-05 -8.76145e-06 
-6.75e-06 -1.175e-05 -8.76028e-06 
-6.5e-06 -1.175e-05 -8.76425e-06 
-6.25e-06 -1.175e-05 -8.7716e-06 
-6e-06 -1.175e-05 -8.76146e-06 
-5.75e-06 -1.175e-05 -8.76412e-06 
-5.5e-06 -1.175e-05 -8.76368e-06 
-5.25e-06 -1.175e-05 -8.76028e-06 
-5e-06 -1.175e-05 -8.75548e-06 
-4.75e-06 -1.175e-05 -8.75841e-06 
-4.5e-06 -1.175e-05 -8.75814e-06 
-4.25e-06 -1.175e-05 -8.75308e-06 
-4e-06 -1.175e-05 -8.76534e-06 
-3.75e-06 -1.175e-05 -8.76365e-06 
-3.5e-06 -1.175e-05 -8.76695e-06 
-3.25e-06 -1.175e-05 -8.76797e-06 
-3e-06 -1.175e-05 -8.75696e-06 
-2.75e-06 -1.175e-05 -8.75602e-06 
-2.5e-06 -1.175e-05 -8.75847e-06 
-2.25e-06 -1.175e-05 -8.75766e-06 
-2e-06 -1.175e-05 -8.77358e-06 
-1.75e-06 -1.175e-05 -8.76184e-06 
-1.5e-06 -1.175e-05 -8.75752e-06 
-1.25e-06 -1.175e-05 -8.76361e-06 
-1e-06 -1.175e-05 -8.75216e-06 
-7.5e-07 -1.175e-05 -8.75308e-06 
-5e-07 -1.175e-05 -8.75617e-06 
-2.5e-07 -1.175e-05 -8.76539e-06 
0 -1.19925e-05 -8.75e-06 
0 -1.175e-05 -8.75836e-06 
2.5e-07 -1.175e-05 -8.76404e-06 
5e-07 -1.175e-05 -8.76365e-06 
7.5e-07 -1.175e-05 -8.76112e-06 
1e-06 -1.175e-05 -8.76987e-06 
1.25e-06 -1.175e-05 -8.75842e-06 
1.5e-06 -1.175e-05 -8.75472e-06 
1.75e-06 -1.175e-05 -8.75578e-06 
2e-06 -1.175e-05 -8.76141e-06 
2.25e-06 -1.175e-05 -8.75696e-06 
2.5e-06 -1.175e-05 -8.76591e-06 
2.75e-06 -1.175e-05 -8.76411e-06 
3e-06 -1.175e-05 -8.76011e-06 
3.25e-06 -1.175e-05 -8.76737e-06 
3.5e-06 -1.175e-05 -8.76503e-06 
3.75e-06 -1.175e-05 -8.76446e-06 
4e-06 -1.175e-05 -8.76135e-06 
4.25e-06 -1.175e-05 -8.76124e-06 
4.5e-06 -1.175e-05 -8.75415e-06 
4.75e-06 -1.175e-05 -8.77147e-06 
5e-06 -1.175e-05 -8.76167e-06 
5.25e-06 -1.175e-05 -8.75921e-06 
5.5e-06 -1.175e-05 -8.76141e-06 
5.75e-06 -1.175e-05 -8.7602e-06 
6e-06 -1.175e-05 -8.76856e-06 
6.25e-06 -1.175e-05 -8.76638e-06 
6.5e-06 -1.175e-05 -8.76246e-06 
6.75e-06 -1.175e-05 -8.76544e-06 
7e-06 -1.175e-05 -8.76156e-06 
7.25e-06 -1.175e-05 -8.75808e-06 
7.5e-06 -1.175e-05 -8.76277e-06 
7.75e-06 -1.175e-05 -8.76212e-06 
8e-06 -1.175e-05 -8.76223e-06 
8.25e-06 -1.175e-05 -8.77335e-06 
8.5e-06 -1.175e-05 -8.76547e-06 
8.75e-06 -1.175e-05 -8.76204e-06 
9e-06 -1.175e-05 -8.75668e-06 
9.25e-06 -1.175e-05 -8.76864e-06 
9.5e-06 -1.175e-05 -8.75773e-06 
9.75e-06 -1.175e-05 -8.76105e-06 
1e-05 -1.175e-05 -8.76176e-06 
1.025e-05 -1.175e-05 -8.76261e-06 
1.05e-05 -1.175e-05 -8.75897e-06 
1.075e-05 -1.175e-05 -8.76099e-06 
1.1e-05 -1.175e-05 -8.76756e-06 
1.125e-05 -1.175e-05 -8.76541e-06 
1.15e-05 -1.175e-05 -8.76563e-06 
1.175e-05 -1.175e-05 -8.76096e-06 
1.2e-05 -1.175e-05 -8.76081e-06 
1.225e-05 -1.175e-05 -8.76214e-06 
-1.2e-05 -1.15e-05 -8.76705e-06 
[...]
POINT_DATA 14801
SCALARS Velocities float 1
LOOKUP_TABLE default
-3.50737e-06
-3.30681e-06
-3.57086e-06
-3.33983e-06
-3.45484e-06
-3.39263e-06
-3.65519e-06
-3.4339e-06
-3.43924e-06
-3.49723e-06
-3.32397e-06
-3.60947e-06
-3.46389e-06
-3.46983e-06
-3.4552e-06
-3.39745e-06
-3.41447e-06
-3.39394e-06
-3.46639e-06
-3.36136e-06
-3.53493e-06
-3.33672e-06
-3.49787e-06
-3.24414e-06
-3.70329e-06
-3.57167e-06
-3.34177e-06
-3.34899e-06
-3.33848e-06
-3.45325e-06
-3.5909e-06
-3.51568e-06
-3.45153e-06
-3.55635e-06
-3.37684e-06
-3.1883e-06
-3.56319e-06
-3.33704e-06
-3.32884e-06
-3.34436e-06
-3.52559e-06
-3.63091e-06
-3.38841e-06
-3.47888e-06
-3.39072e-06
-3.73688e-06
-3.4376e-06
-3.5989e-06
-3.66166e-06
-3.74298e-06
-3.55529e-06
-3.69428e-06
-3.4661e-06
-3.27671e-06
-3.43888e-06
-3.2551e-06
-3.44139e-06
-3.42514e-06
-3.37473e-06
-3.37986e-06
-3.26212e-06
-3.55194e-06
-3.52683e-06
-3.5832e-06
-3.49112e-06
-3.29617e-06
-3.3309e-06
-3.30278e-06
-3.50431e-06
-3.38355e-06
-3.49411e-06
-3.56682e-06
-3.46436e-06
-3.36014e-06
-3.41116e-06
-3.44788e-06
-3.62138e-06
-3.45546e-06
-3.35769e-06
-3.43765e-06
-3.30988e-06
-3.33736e-06
-3.4453e-06
-3.3216e-06
-3.23878e-06
-3.49134e-06
-3.40393e-06
-3.37723e-06
-3.39535e-06
-3.50341e-06
-3.35648e-06
-3.42202e-06
-3.46098e-06
-3.31546e-06
-3.47305e-06
-3.22448e-06
-3.46263e-06
-3.16665e-06
-3.44282e-06
-3.30958e-06
-3.44282e-06
-3.80167e-06
-3.44282e-06
-3.44743e-06
-3.52513e-06
-3.4442e-06
-3.39943e-06
-3.3071e-06
-3.49294e-06
-3.57227e-06
-3.6237e-06
-3.5982e-06
-3.49854e-06
-3.38433e-06
-3.20824e-06
-3.30456e-06
-3.22949e-06
-3.21968e-06
-3.48633e-06
-3.40285e-06
-3.42042e-06
-3.4937e-06
-3.43168e-06
-3.5536e-06
-3.30099e-06
-3.47028e-06
-3.59137e-06
-3.51351e-06
-3.59201e-06
-3.32115e-06
-3.52702e-06
-3.35017e-06
-3.25562e-06
-3.45234e-06
-3.43683e-06
-3.47171e-06
-3.58565e-06
-3.43984e-06
-3.52552e-06
-3.46711e-06
-3.45598e-06
-3.62181e-06
-3.4406e-06
-3.46117e-06
-3.40657e-06
-3.40756e-06
-3.32833e-06
-3.64548e-06
-3.45667e-06
-3.53698e-06
-3.27392e-06
-3.7055e-06
-3.44574e-06
-3.62115e-06
-3.47579e-06
-3.47935e-06
-3.27173e-06
-3.39689e-06
-3.47056e-06
-3.51238e-06
-3.40879e-06
-3.42997e-06
-3.54756e-06
-3.22245e-06
-3.61829e-06
-3.48591e-06
-3.59614e-06
-3.31121e-06
-3.55821e-06
-3.48436e-06
-3.58404e-06
-3.54843e-06
-3.26866e-06
-3.5649e-06
-3.37547e-06
-3.60386e-06
-3.37386e-06
-3.75175e-06
-3.53965e-06
-3.46418e-06
-3.4467e-06
-3.35165e-06
-3.40065e-06
-3.36384e-06
-3.48341e-06
-3.44805e-06
-3.60933e-06
-3.15991e-06
-3.48573e-06
-3.37519e-06
-3.27408e-06
-3.3426e-06
-3.53641e-06
-3.33414e-06
-3.79791e-06
-3.388e-06
-3.53802e-06
-3.38016e-06
-3.57086e-06
-3.33983e-06
-3.33759e-06
-3.27154e-06
-3.56751e-06
-3.34499e-06
-3.3278e-06
-3.529e-06
-3.40625e-06
-3.30069e-06
-3.27141e-06
-3.52192e-06
-3.52782e-06
-3.52855e-06
-3.44894e-06
-3.42115e-06
-3.29718e-06
-3.46202e-06
-3.48317e-06
-3.45399e-06
-3.46738e-06
-3.39769e-06
-3.36632e-06
-3.37306e-06
-3.5283e-06
-3.28864e-06
-3.46807e-06
-3.4268e-06
-3.25134e-06
-3.3637e-06
-3.50581e-06
-3.33255e-06
-3.50353e-06
-3.36379e-06
-3.42917e-06
-3.38059e-06
-3.29311e-06
-3.60958e-06
-3.28958e-06
-3.30151e-06
-3.45274e-06
-3.50243e-06
-3.48809e-06
-3.32831e-06
-3.50133e-06
-3.49232e-06
-3.48558e-06
-3.39665e-06
-3.42035e-06
-3.49256e-06
-3.54915e-06
-3.44282e-06
-3.68953e-06
-3.72168e-06
-3.35341e-06
-3.59721e-06
-3.53938e-06
-3.26154e-06
-3.42159e-06
-3.58585e-06
-3.46333e-06
-3.46885e-06
-3.47952e-06
-3.42827e-06
-3.54136e-06
-3.39824e-06
-3.27349e-06
-3.31335e-06
-3.34004e-06
-3.38974e-06
-3.44353e-06
-3.52728e-06
-3.4442e-06
-3.47848e-06
-3.49746e-06
-3.35007e-06
-3.40431e-06
-3.5115e-06
-3.56233e-06
-3.56448e-06
-3.5565e-06
-3.35611e-06
-3.3751e-06
-3.45946e-06
-3.25866e-06
-3.19815e-06
-3.434e-06
-3.60019e-06
-3.72811e-06
-3.5508e-06
-3.50856e-06
-3.36683e-06
-3.39399e-06
-3.48325e-06
-3.37075e-06
-3.52382e-06
-3.58244e-06
-3.20647e-06
-3.46029e-06
-3.49135e-06
-3.39331e-06
-3.27154e-06
-3.52817e-06
-3.5094e-06
-3.43659e-06
-3.30045e-06
-3.38126e-06
-3.17674e-06
-3.22004e-06
-3.19641e-06
-3.3565e-06
-3.58033e-06
-3.60482e-06
-3.59728e-06
-3.34451e-06
-3.47329e-06
-3.46482e-06
-3.29319e-06
-3.50259e-06
-3.28146e-06
-3.54912e-06
-3.5261e-06
-3.45054e-06
-3.54983e-06
-3.55518e-06
-3.36492e-06
-3.45373e-06
-3.47214e-06
-3.41246e-06
-3.42895e-06
-3.56247e-06
-3.26405e-06
-3.36248e-06
-3.36001e-06
-3.46557e-06
-3.46838e-06
-3.41593e-06
-3.58352e-06
-3.53791e-06
-3.61366e-06
-3.44694e-06
-3.39355e-06
-3.42337e-06
-3.49845e-06
-3.37285e-06
-3.46051e-06
-3.56294e-06
-3.50305e-06
-3.42859e-06
-3.42438e-06
-3.33199e-06
-3.44189e-06
-3.64948e-06
-3.51644e-06
-3.45601e-06
-3.72216e-06
-3.34302e-06
-3.50592e-06
-3.40618e-06
-3.4871e-06
-3.31479e-06
-3.56125e-06
-3.51096e-06
-3.47585e-06
-3.31063e-06
-3.33838e-06
-3.39603e-06
-3.4359e-06
-3.40616e-06
-3.55886e-06
-3.45551e-06
-3.37917e-06
-3.71174e-06
-3.39925e-06
-3.44062e-06
-3.6027e-06
-3.30659e-06
-3.55511e-06
-3.44736e-06
-3.42119e-06
-3.2517e-06
-3.52763e-06
-3.72008e-06
-3.52603e-06
-3.42458e-06
-3.53362e-06
-3.48927e-06
-3.49857e-06
-3.56016e-06
-3.27086e-06
-3.37902e-06
-3.35996e-06
-3.27234e-06
-3.32576e-06
-3.4809e-06
-3.61605e-06
-3.41972e-06
-3.34992e-06
-3.53478e-06
-3.47633e-06
-3.5094e-06
-3.53268e-06
-3.41722e-06
-3.49339e-06
-3.62278e-06
-3.60491e-06
-3.5058e-06
-3.5058e-06
-3.33427e-06
-3.5058e-06
-3.36198e-06
-3.54737e-06
-3.62844e-06
-3.70819e-06
-3.47605e-06
-3.41198e-06
-3.44498e-06
-3.56189e-06
-3.54324e-06
-3.60626e-06
-3.50167e-06
-3.65357e-06
-3.50666e-06
-3.34292e-06
-3.38333e-06
-3.4437e-06
-3.39028e-06
-3.53902e-06
-3.39164e-06
-3.44314e-06
-3.41762e-06
-3.56256e-06
-3.31729e-06
-3.37069e-06
-3.14555e-06
-3.30032e-06
-3.37797e-06
-3.40717e-06
-3.32737e-06
-3.20143e-06
-3.297e-06
-3.58688e-06
-3.42517e-06
-3.26441e-06
-3.41467e-06
-3.36505e-06
-3.44603e-06
-3.39403e-06
-3.56294e-06
-3.68101e-06
-3.50095e-06
-3.35475e-06
-3.48837e-06
-3.49359e-06
-3.42605e-06
-3.38763e-06
-3.61256e-06
-3.63482e-06
-3.50763e-06
-3.44411e-06
-3.54583e-06
-3.48793e-06
-3.49222e-06
-3.34413e-06
-3.43957e-06
-3.53315e-06
-3.53818e-06
-3.39998e-06
-3.40261e-06
-3.70752e-06
-3.58633e-06
-3.4288e-06
-3.41404e-06
-3.54171e-06
-3.38669e-06
-3.55643e-06
-3.49113e-06
-3.28453e-06
-3.49325e-06
-3.23111e-06
-3.20067e-06
-3.31703e-06
-3.58326e-06
-3.57172e-06
-3.42737e-06
-3.27295e-06
-3.4492e-06
-3.62512e-06
-3.54163e-06
-3.56279e-06
-3.67919e-06
-3.5677e-06
-3.44528e-06
-3.46668e-06
-3.49338e-06
-3.2326e-06
-3.61615e-06
-3.41986e-06
-3.35404e-06
-3.31854e-06
-3.3642e-06
-3.41722e-06
-3.52819e-06
-3.44417e-06
-3.69637e-06
-3.53607e-06
-3.32866e-06
-3.5058e-06
-3.46696e-06
-3.48963e-06
-3.46615e-06
-3.22362e-06
-3.3774e-06
-3.33247e-06
-3.33247e-06
-3.27261e-06
-3.33247e-06
-3.42348e-06
-3.53734e-06
-3.55364e-06
-3.39137e-06
-3.35002e-06
-3.40752e-06
-3.35848e-06
-3.16736e-06
-3.29447e-06
-3.33792e-06
-3.39456e-06
-3.37278e-06
-3.37658e-06
-3.57862e-06
-3.42556e-06
-3.37483e-06
-3.5266e-06
-3.36372e-06
-3.43918e-06
-3.35271e-06
-3.29723e-06
-3.50977e-06
-3.42132e-06
-3.42522e-06
-3.3494e-06
-3.19788e-06
-3.57692e-06
-3.2887e-06
-3.40138e-06
-3.62819e-06
-3.44549e-06
-3.34739e-06
-3.496e-06
-3.51287e-06
-3.60985e-06
-3.57762e-06
-3.44361e-06
-3.44306e-06
-3.5257e-06
-3.48891e-06
-3.34129e-06
-3.42508e-06
-3.53979e-06
-3.38264e-06
-3.29731e-06
-3.64359e-06
-3.56949e-06
-3.39431e-06
-3.40229e-06
-3.45053e-06
-3.52872e-06
-3.50363e-06
-3.61352e-06
-3.55776e-06
-3.71889e-06
-3.65927e-06
-3.35783e-06
-3.31455e-06
-3.56331e-06
-3.45047e-06
-3.48333e-06
-3.50783e-06
-3.41182e-06
-3.57295e-06
-3.43393e-06
-3.49765e-06
-3.40504e-06
-3.28391e-06
-3.2038e-06
-3.34353e-06
-3.39872e-06
-3.58091e-06
-3.44039e-06
-3.40599e-06
-3.4898e-06
-3.42954e-06
-3.52036e-06
-3.30281e-06
-3.50189e-06
-3.79752e-06
-3.558e-06
-3.45229e-06
-3.37601e-06
-3.34172e-06
-3.63013e-06
-3.40924e-06
-3.44417e-06
-3.34942e-06
-3.47602e-06
-3.57093e-06
-3.26698e-06
-3.35774e-06
-3.33684e-06
-3.64238e-06
-3.4703e-06
-3.31507e-06
-3.48158e-06
-3.33247e-06
-3.42497e-06
-3.30484e-06
-3.33778e-06
-3.36335e-06
-3.38704e-06
-3.42106e-06
-3.35373e-06
-3.30063e-06
-3.2915e-06
-3.35782e-06
-3.25257e-06
-3.45961e-06
-3.43662e-06
-3.54045e-06
-3.387e-06
-3.38895e-06
-3.50737e-06
-3.47191e-06
-3.35741e-06
-3.50613e-06
-3.56838e-06
-3.47698e-06
-3.42845e-06
-3.50728e-06
-3.47408e-06
-3.5176e-06
-3.39364e-06
-3.49557e-06
-3.5621e-06
-3.33387e-06
-3.46781e-06
-3.56682e-06
-3.50633e-06
-3.43784e-06
-3.40976e-06
-3.32355e-06
-3.42404e-06
-3.45856e-06
-3.55731e-06
-3.36939e-06
-3.22245e-06
-3.34257e-06
-3.47922e-06
-3.47708e-06
-3.60179e-06
-3.56844e-06
-3.4501e-06
-3.59643e-06
-3.45043e-06
-3.52076e-06
-3.45591e-06
-3.49372e-06
-3.5379e-06
-3.44419e-06
-3.42197e-06
-3.60122e-06
-3.48836e-06
-3.22929e-06
-3.34147e-06
-3.47082e-06
-3.43768e-06
-3.44989e-06
-3.48361e-06
-3.46974e-06
-3.5825e-06
-3.53796e-06
-3.50809e-06
-3.54521e-06
-3.48233e-06
-3.28978e-06
-3.33617e-06
-3.63122e-06
-3.72375e-06
-3.6472e-06
-3.49915e-06
-3.47682e-06
-3.41368e-06
-3.37286e-06
-3.65445e-06
-3.36408e-06
-3.44687e-06
-3.46385e-06
-3.48649e-06
-3.48515e-06
-3.38958e-06
-3.40909e-06
-3.62274e-06
-3.42061e-06
-3.42061e-06
-3.47602e-06
-3.42061e-06
-3.32529e-06
-3.43149e-06
-3.48551e-06
-3.45077e-06
-3.54952e-06
-3.52942e-06
-3.6058e-06
-3.28375e-06
-3.43963e-06
-3.43198e-06
-3.66533e-06
-3.55054e-06
-3.43558e-06
-3.19215e-06
-3.42351e-06
-3.58394e-06
-3.54198e-06
-3.53831e-06
-3.27501e-06
-3.34948e-06
-3.29779e-06
-3.36985e-06
-3.45116e-06
-3.5154e-06
-3.72001e-06
-3.50501e-06
-3.52374e-06
-3.46228e-06
-3.43714e-06
-3.37411e-06
-3.4876e-06
-3.4584e-06
-3.54416e-06
-3.44381e-06
-3.41976e-06
-3.29115e-06
-3.30601e-06
-3.69923e-06
-3.63004e-06
-3.46554e-06
-3.43052e-06
-3.72451e-06
-3.37954e-06
-3.39579e-06
-3.46206e-06
-3.45124e-06
-3.3091e-06
-3.74282e-06
-3.7108e-06
-3.66249e-06
-3.67918e-06
-3.31317e-06
-3.41825e-06
-3.43675e-06
-3.52609e-06
-3.71053e-06
-3.47067e-06
-3.3959e-06
-3.47161e-06
-3.34169e-06
-3.4384e-06
-3.34697e-06
-3.29269e-06
-3.28909e-06
-3.3137e-06
-3.46423e-06
-3.58676e-06
-3.27662e-06
-3.24437e-06
-3.41714e-06
-3.34669e-06
-3.48322e-06
-3.32131e-06
-3.30191e-06
-3.60763e-06
-3.55741e-06
-3.35938e-06
-3.47245e-06
-3.47978e-06
-3.42932e-06
-3.60779e-06
-3.52959e-06
-3.55542e-06
-3.44397e-06
-3.31943e-06
-3.49205e-06
-3.34746e-06
-3.39233e-06
-3.57197e-06
-3.45222e-06
-3.26109e-06
-3.39733e-06
-3.29266e-06
-3.33171e-06
-3.45248e-06
-3.39852e-06
-3.34644e-06
-3.42061e-06
-3.40582e-06
-3.43149e-06
-3.31895e-06
-3.62384e-06
-3.32841e-06
-3.42396e-06
-3.39704e-06
-3.70333e-06
-3.44708e-06
-3.47714e-06
-3.65739e-06
-3.44381e-06
-3.35814e-06
-3.43274e-06
-3.41295e-06
-3.29937e-06
-3.70946e-06
-3.55588e-06
-3.55721e-06
-3.56845e-06
-3.43856e-06
-3.4422e-06
-3.49221e-06
-3.52877e-06
-3.40381e-06
-3.4935e-06
-3.57868e-06
-3.24181e-06
-3.18748e-06
-3.46755e-06
-3.54902e-06
-3.3662e-06
-3.39439e-06
-3.29579e-06
-3.42915e-06
-3.54012e-06
-3.47619e-06
-3.344e-06
-3.40275e-06
-3.58394e-06
-3.55422e-06
-3.35379e-06
-3.3694e-06
-3.4067e-06
-3.26408e-06
-3.18512e-06
-3.54942e-06
-3.67082e-06
-3.43156e-06
-3.53568e-06
-3.56464e-06
-3.37226e-06
-3.4692e-06
-3.50049e-06
-3.55103e-06
-3.57063e-06
-3.27408e-06
-3.41633e-06
-3.44541e-06
-3.45834e-06
-3.48234e-06
-3.27832e-06
-3.48985e-06
-3.38219e-06
-3.33199e-06
-3.28886e-06
-3.34332e-06
-3.83459e-06
-3.39499e-06
-3.27319e-06
-3.44669e-06
-3.54304e-06
-3.59055e-06
-3.48821e-06
-3.27697e-06
-3.52282e-06
-3.46519e-06
-3.45033e-06
-3.44122e-06
-3.53104e-06
-3.44268e-06
-3.42664e-06
-3.46099e-06
-3.57417e-06
-3.34216e-06
-3.48298e-06
-3.53583e-06
-3.47583e-06
-3.5226e-06
-3.34072e-06
-3.32759e-06
-3.40252e-06
-3.58015e-06
-3.53058e-06
-3.4168e-06
-3.44195e-06
-3.593e-06
-3.34928e-06
-3.23393e-06
-3.57611e-06
-3.62384e-06
-3.6424e-06
-3.56616e-06
-3.55232e-06
-3.52636e-06
-3.2149e-06
-3.34477e-06
-3.32802e-06
-3.25459e-06
-3.3883e-06
-3.417e-06
-3.53694e-06
-3.42172e-06
-3.26076e-06
-3.24874e-06
-3.38534e-06
-3.16089e-06
-3.40053e-06
-3.49252e-06
-3.29108e-06
-3.46483e-06
-3.46338e-06
-3.61569e-06
-3.26054e-06
-3.26974e-06
-3.32453e-06
-3.34998e-06
-3.29433e-06
-3.47939e-06
-3.47732e-06
-3.22376e-06
-3.28362e-06
-3.38658e-06
-3.31929e-06
-3.35696e-06
-3.62542e-06
-3.6965e-06
-3.4185e-06
-3.52263e-06
-3.46285e-06
-3.35854e-06
-3.41224e-06
-3.46454e-06
-3.30245e-06
-3.21496e-06
-3.51428e-06
-3.38732e-06
-3.39714e-06
-3.50031e-06
-3.73993e-06
-3.45522e-06
-3.34275e-06
-3.24203e-06
-3.25364e-06
-3.70013e-06
-3.44456e-06
-3.40174e-06
-3.35407e-06
-3.64566e-06
-3.59845e-06
-3.34245e-06
-3.57389e-06
-3.38052e-06
-3.54567e-06
-3.25451e-06
-3.38845e-06
-3.80008e-06
-3.4873e-06
-3.33792e-06
-3.43447e-06
-3.52775e-06
-3.50053e-06
-3.67715e-06
-3.5482e-06
-3.67264e-06
-3.26857e-06
-3.48601e-06
-3.44816e-06
-3.43587e-06
-3.24761e-06
-3.47035e-06
-3.51158e-06
-3.47204e-06
-3.26269e-06
-3.64551e-06
-3.4943e-06
-3.48026e-06
-3.66192e-06
-3.38223e-06
-3.41119e-06
-3.50788e-06
-3.64305e-06
-3.56417e-06
-3.41506e-06
-3.41185e-06
-3.59359e-06
-3.4622e-06
-3.42893e-06
-3.45214e-06
-3.56616e-06
-3.48678e-06
-3.37715e-06
-3.45166e-06
-3.46865e-06
-3.39522e-06
-3.12104e-06
-3.30127e-06
-3.45303e-06
-3.43773e-06
-3.3265e-06
-3.38077e-06
-3.40353e-06
-3.54616e-06
-3.39632e-06
-3.66398e-06
-3.57943e-06
-3.73982e-06
-3.48241e-06
-3.44645e-06
-3.39327e-06
-3.37785e-06
-3.47637e-06
-3.31698e-06
-3.45464e-06
-3.45283e-06
-3.38625e-06
-3.5021e-06
-3.49494e-06
-3.54487e-06
-3.2991e-06
-3.29569e-06
-3.45436e-06
-3.45148e-06
-3.32327e-06
-3.58298e-06
-3.58298e-06
-3.55722e-06
-3.42753e-06
-3.42753e-06
-3.40686e-06
-3.12565e-06
-3.08323e-06
-3.36872e-06
-3.39697e-06
-3.23693e-06
-3.44261e-06
-3.29352e-06
-3.4518e-06
-3.53056e-06
-3.34786e-06
-3.35698e-06
-3.45069e-06
-3.38086e-06
-3.36698e-06
-3.40605e-06
-3.48214e-06
-3.46177e-06
-3.35613e-06
-3.43326e-06
-3.54741e-06
-3.41985e-06
-3.44972e-06
-3.39757e-06
-3.44046e-06
-3.50642e-06
-3.64243e-06
-3.4658e-06
-3.56329e-06
-3.55252e-06
-3.26329e-06
-3.41639e-06
-3.49269e-06
-3.3569e-06
-3.60166e-06
-3.61821e-06
-3.42694e-06
-3.35341e-06
-3.40397e-06
-3.40349e-06
-3.58208e-06
-3.30501e-06
-3.43013e-06
-3.55876e-06
-3.52148e-06
-3.56227e-06
-3.45703e-06
-3.28116e-06
-3.37466e-06
-3.27122e-06
-3.3376e-06
-3.56016e-06
-3.32804e-06
-3.59185e-06
-3.47517e-06
-3.34271e-06
-3.11003e-06
-3.41484e-06
-3.75704e-06
-3.56233e-06
-3.56571e-06
-3.37715e-06
-3.71102e-06
-3.27504e-06
-3.5473e-06
-3.25266e-06
-3.24286e-06
-3.20316e-06
-3.40107e-06
-3.31547e-06
-3.39735e-06
-3.42482e-06
-3.25702e-06
-3.40083e-06
-3.57065e-06
-3.5363e-06
-3.38165e-06
-3.30474e-06
-3.34369e-06
-3.34468e-06
-3.33237e-06
-3.46745e-06
-3.45412e-06
-3.58102e-06
-3.39997e-06
-3.39913e-06
-3.53644e-06
-3.58434e-06
-3.53101e-06
-3.22484e-06
-3.62405e-06
-3.52404e-06
-3.35955e-06
-3.47262e-06
-3.38134e-06
-3.59036e-06
-3.51318e-06
-3.55722e-06
-3.66873e-06
-3.60081e-06
-3.58273e-06
-3.42548e-06
-3.51694e-06
-3.65062e-06
-3.42099e-06
-3.29503e-06
-3.42752e-06
-3.31214e-06
-3.50675e-06
-3.64691e-06
-3.61416e-06
-3.38794e-06
-3.38519e-06
-3.27548e-06
-3.41289e-06
-3.28367e-06
-3.38611e-06
-3.47084e-06
-3.30629e-06
-3.29047e-06
-3.5744e-06
-3.49302e-06
-3.53171e-06
-3.36135e-06
-3.40494e-06
-3.47289e-06
-3.6489e-06
-3.61131e-06
-3.41534e-06
-3.30057e-06
-3.20685e-06
-3.19658e-06
-3.50447e-06
-3.29319e-06
-3.36428e-06
-3.63899e-06
-3.44751e-06
-3.52982e-06
-3.47902e-06
-3.39625e-06
-3.4027e-06
-3.39856e-06
-3.41702e-06
-3.35715e-06
-3.4287e-06
-3.35691e-06
-3.35184e-06
-3.47237e-06
-3.55666e-06
-3.34821e-06
-3.30573e-06
-3.52374e-06
-3.40474e-06
-3.68153e-06
-3.49149e-06
-3.38399e-06
-3.32733e-06
-3.44278e-06
-3.47873e-06
-3.4987e-06
-3.39709e-06
-3.27504e-06
-3.42623e-06
-3.25966e-06
-3.3517e-06
-3.3326e-06
-3.41221e-06
-3.46459e-06
-3.52951e-06
-3.55401e-06
-3.42381e-06
-3.40652e-06
-3.45913e-06
-3.34353e-06
-3.35519e-06
-3.43914e-06
-3.41203e-06
-3.47563e-06
-3.32958e-06
-3.48618e-06
-3.29972e-06
-3.2751e-06
-3.46431e-06
-3.48099e-06
-3.30389e-06
-3.46127e-06
-3.46127e-06
-3.58112e-06
-3.46127e-06
-3.35722e-06
-3.38322e-06
-3.27561e-06
-3.54038e-06
-3.23925e-06
-3.34522e-06
-3.66189e-06
-3.56237e-06
-3.41096e-06
-3.41287e-06
-3.48289e-06
-3.51142e-06
-3.63157e-06
-3.48387e-06
-3.57527e-06
-3.57378e-06
-3.30548e-06
-3.46789e-06
-3.67925e-06
-3.40897e-06
-3.65378e-06
-3.64112e-06
-3.38605e-06
-3.39528e-06
-3.492e-06
-3.15984e-06
-3.2868e-06
-3.56038e-06
-3.37487e-06
-3.60547e-06
-3.38588e-06
-3.37756e-06
-3.17451e-06
-3.29812e-06
-3.37729e-06
-3.51704e-06
-3.43605e-06
-3.56984e-06
-3.50953e-06
-3.40724e-06
-3.51618e-06
-3.36088e-06
-3.25835e-06
-3.32269e-06
-3.40935e-06
-3.39237e-06
-3.34682e-06
-3.35079e-06
-3.31043e-06
-3.38333e-06
-3.40083e-06
-3.58725e-06
-3.27766e-06
-3.52822e-06
-3.3237e-06
-3.19817e-06
-3.54384e-06
-3.56536e-06
-3.30671e-06
-3.22096e-06
-3.41279e-06
-3.4727e-06
-3.38045e-06
-3.63883e-06
-3.5054e-06
-3.33201e-06
-3.3305e-06
-3.30431e-06
-3.40701e-06
-3.50274e-06
-3.36414e-06
-3.47185e-06
-3.43928e-06
-3.25966e-06
-3.59192e-06
-3.34101e-06
-3.39256e-06
-3.28822e-06
-3.3148e-06
-3.60087e-06
-3.60595e-06
-3.3782e-06
-3.34151e-06
-3.22134e-06
-3.45213e-06
-3.61466e-06
-3.47585e-06
-3.40635e-06
-3.50639e-06
-3.6311e-06
-3.57524e-06
-3.54819e-06
-3.56582e-06
-3.28256e-06
-3.49434e-06
-3.28785e-06
-3.15587e-06
-3.46127e-06
-3.43675e-06
-3.26669e-06
-3.46972e-06
-3.52016e-06
-3.33899e-06
-3.33695e-06
-3.33926e-06
-3.51175e-06
-3.47699e-06
-3.68597e-06
-3.40374e-06
-3.32226e-06
-3.47343e-06
-3.57644e-06
-3.27392e-06
-3.3432e-06
-3.6638e-06
-3.43471e-06
-3.363e-06
-3.34541e-06
-3.56846e-06
-3.37727e-06
-3.4669e-06
-3.26727e-06
-3.35302e-06
-3.33602e-06
-3.33898e-06
-3.14422e-06
-3.16769e-06
-3.48296e-06
-3.46965e-06
-3.62795e-06
-3.45998e-06
-3.33952e-06
-3.42444e-06
-3.3982e-06
-3.48212e-06
-3.50153e-06
-3.36183e-06
-3.53092e-06
-3.55034e-06
-3.4671e-06
-3.49689e-06
-3.46826e-06
-3.49697e-06
-3.71498e-06
-3.46296e-06
-3.50612e-06
-3.38484e-06
-3.53891e-06
-3.42172e-06
-3.42889e-06
-3.62229e-06
-3.55808e-06
-3.48872e-06
-3.6207e-06
-3.27881e-06
-3.49773e-06
-3.56438e-06
-3.39183e-06
-3.31748e-06
-3.48968e-06
-3.37583e-06
-3.55959e-06
-3.62365e-06
-3.77285e-06
-3.52625e-06
-3.34325e-06
-3.44117e-06
-3.58373e-06
-3.37468e-06
-3.36908e-06
-3.39626e-06
-3.59385e-06
-3.55475e-06
-3.34101e-06
-3.3022e-06
-3.44394e-06
-3.4215e-06
-3.26116e-06
-3.48009e-06
-3.45649e-06
-3.37264e-06
-3.30798e-06
-3.377e-06
-3.55874e-06
-3.4698e-06
-3.45991e-06
-3.49887e-06
-3.37313e-06
-3.48205e-06
-3.29852e-06
-3.41547e-06
-3.60064e-06
-3.44139e-06
-3.4067e-06
-3.59754e-06
-3.43073e-06
-3.33869e-06
-3.52073e-06
-3.44967e-06
-3.40029e-06
-3.47254e-06
-3.52051e-06
-3.55422e-06
-3.49914e-06
-3.34858e-06
-3.26351e-06
-3.57074e-06
-3.35831e-06
-3.52438e-06
-3.38708e-06
-3.50132e-06
-3.30169e-06
-3.50361e-06
-3.30328e-06
-3.2778e-06
-3.46366e-06
-3.34071e-06
-3.5004e-06
-3.55993e-06
-3.6418e-06
-3.69542e-06
-3.72234e-06
-3.56515e-06
-3.52555e-06
-3.55728e-06
-3.51227e-06
-3.48356e-06
-3.5928e-06
-3.39964e-06
-3.59713e-06
-3.3143e-06
-3.3899e-06
-3.51138e-06
-3.41879e-06
-3.54096e-06
-3.35371e-06
-3.35166e-06
-3.43287e-06
-3.46713e-06
-3.56411e-06
-3.41443e-06
-3.57275e-06
-3.38977e-06
-3.40114e-06
-3.53664e-06
-3.44954e-06
-3.72979e-06
-3.5004e-06
-3.45147e-06
-3.50554e-06
-3.3759e-06
-3.20839e-06
-3.38424e-06
-3.36117e-06
-3.4092e-06
-3.52102e-06
-3.49512e-06
-3.67311e-06
-3.55993e-06
-3.38685e-06
-3.38018e-06
-3.4688e-06
-3.39673e-06
-3.32852e-06
-3.41626e-06
-3.40804e-06
-3.46777e-06
-3.3149e-06
-3.40043e-06
-3.37073e-06
-3.519e-06
-3.52609e-06
-3.44394e-06
-3.50868e-06
-3.71396e-06
-3.44786e-06
-3.50699e-06
-3.49034e-06
-3.45546e-06
-3.49766e-06
-3.27643e-06
-3.22776e-06
-3.50268e-06
-3.59774e-06
-3.50043e-06
-3.36549e-06
-3.32199e-06
-3.32199e-06
-3.51499e-06
-3.32199e-06
-3.33562e-06
-3.46313e-06
-3.60513e-06
-3.46016e-06
-3.53463e-06
-3.53501e-06
-3.53756e-06
-3.33235e-06
-3.36643e-06
-3.71627e-06
-3.65559e-06
-3.49519e-06
-3.50433e-06
-3.38812e-06
-3.52536e-06
-3.44704e-06
-3.18515e-06
-3.4254e-06
-3.23422e-06
-3.56299e-06
-3.4498e-06
-3.32008e-06
-3.13565e-06
-3.53966e-06
-3.37823e-06
-3.3328e-06