# vtk DataFile Version 2.0
3D Surface
ASCII
DATASET UNSTRUCTURED_GRID
POINTS 15223 float
3.25e-06 -7e-06 -1.00047e-05 
3.17383e-06 -7e-06 -1e-05 
3.25e-06 -7.07495e-06 -1e-05 
3.45896e-06 -7e-06 -1e-05 
3.25e-06 -6.94734e-06 -1e-05 
-3.75e-06 -5.5e-06 -1.00097e-05 
-3.86003e-06 -5.5e-06 -1e-05 
-3.75e-06 -5.65568e-06 -1e-05 
-3.65856e-06 -5.5e-06 -1e-05 
-4.25e-06 -5.25e-06 -1.00004e-05 
-4.25721e-06 -5.25e-06 -1e-05 
-4.25e-06 -5.26231e-06 -1e-05 
-4.22837e-06 -5.25e-06 -1e-05 
-3.75e-06 -5.3718e-06 -1e-05 
-4.25e-06 -5.24513e-06 -1e-05 
-5e-06 -4.5e-06 -1.00032e-05 
-5.08622e-06 -4.5e-06 -1e-05 
-5e-06 -4.64556e-06 -1e-05 
-4.95855e-06 -4.5e-06 -1e-05 
-5.5e-06 -4.25e-06 -1.00007e-05 
-5.52343e-06 -4.25e-06 -1e-05 
-5.5e-06 -4.25949e-06 -1e-05 
-5.25e-06 -4.36576e-06 -1e-05 
-5.25e-06 -4.25e-06 -1.00052e-05 
-5e-06 -4.44593e-06 -1e-05 
-5.17218e-06 -4.25e-06 -1e-05 
-5.5e-06 -4.23579e-06 -1e-05 
-5.25e-06 -4.10634e-06 -1e-05 
-6e-06 -3.5e-06 -1.00051e-05 
-6.09119e-06 -3.5e-06 -1e-05 
-6e-06 -3.58019e-06 -1e-05 
-5.91462e-06 -3.5e-06 -1e-05 
-6e-06 -3.44875e-06 -1e-05 
-5.5e-06 3.5e-06 -1.00004e-05 
-5.54452e-06 3.5e-06 -1e-05 
-5.5e-06 3.49389e-06 -1e-05 
-5.48503e-06 3.5e-06 -1e-05 
-5.5e-06 3.5093e-06 -1e-05 
-4.75e-06 5.25e-06 -1.00007e-05 
-4.76129e-06 5.25e-06 -1e-05 
-4.75e-06 5.2365e-06 -1e-05 
-4.73586e-06 5.25e-06 -1e-05 
-4.75e-06 5.26055e-06 -1e-05 
-4e-06 5.5e-06 -1.00008e-05 
-4.06151e-06 5.5e-06 -1e-05 
-4e-06 5.42996e-06 -1e-05 
-3.90753e-06 5.5e-06 -1e-05 
-4e-06 5.51791e-06 -1e-05 
3.5e-06 6.25e-06 -1.0004e-05 
3.44058e-06 6.25e-06 -1e-05 
3.5e-06 6.04027e-06 -1e-05 
3.57246e-06 6.25e-06 -1e-05 
3.5e-06 6.48972e-06 -1e-05 
-1.2e-05 -1.225e-05 -9.96585e-06 
-1.2e-05 -1.2e-05 -9.96339e-06 
-1.225e-05 -1.225e-05 -9.95739e-06 
-1.225e-05 -1.2e-05 -9.95698e-06 
-1.175e-05 -1.225e-05 -9.97319e-06 
-1.175e-05 -1.2e-05 -9.96362e-06 
-1.15e-05 -1.225e-05 -9.96395e-06 
-1.15e-05 -1.2e-05 -9.95369e-06 
-1.125e-05 -1.225e-05 -9.96813e-06 
-1.125e-05 -1.2e-05 -9.96521e-06 
-1.1e-05 -1.225e-05 -9.97632e-06 
-1.1e-05 -1.2e-05 -9.96985e-06 
-1.075e-05 -1.225e-05 -9.97902e-06 
-1.075e-05 -1.2e-05 -9.96816e-06 
-1.05e-05 -1.225e-05 -9.96869e-06 
-1.05e-05 -1.2e-05 -9.96481e-06 
-1.025e-05 -1.225e-05 -9.97348e-06 
-1.025e-05 -1.2e-05 -9.96808e-06 
-1e-05 -1.225e-05 -9.97081e-06 
-1e-05 -1.2e-05 -9.96868e-06 
-9.75e-06 -1.225e-05 -9.95739e-06 
-9.75e-06 -1.2e-05 -9.95967e-06 
-9.5e-06 -1.225e-05 -9.96286e-06 
-9.5e-06 -1.2e-05 -9.96507e-06 
-9.25e-06 -1.225e-05 -9.96637e-06 
-9.25e-06 -1.2e-05 -9.96261e-06 
-9e-06 -1.225e-05 -9.96442e-06 
-9e-06 -1.2e-05 -9.95555e-06 
-8.75e-06 -1.225e-05 -9.96374e-06 
-8.75e-06 -1.2e-05 -9.96449e-06 
-8.5e-06 -1.225e-05 -9.96923e-06 
-8.5e-06 -1.2e-05 -9.97486e-06 
-8.25e-06 -1.225e-05 -9.97056e-06 
-8.25e-06 -1.2e-05 -9.96428e-06 
-8e-06 -1.225e-05 -9.9665e-06 
-8e-06 -1.2e-05 -9.96287e-06 
-7.75e-06 -1.225e-05 -9.97215e-06 
-7.75e-06 -1.2e-05 -9.97e-06 
-7.5e-06 -1.225e-05 -9.96028e-06 
-7.5e-06 -1.2e-05 -9.96094e-06 
-7.25e-06 -1.225e-05 -9.9556e-06 
-7.25e-06 -1.2e-05 -9.96769e-06 
-7e-06 -1.225e-05 -9.97032e-06 
-7e-06 -1.2e-05 -9.97177e-06 
-6.75e-06 -1.225e-05 -9.96324e-06 
-6.75e-06 -1.2e-05 -9.96945e-06 
-6.5e-06 -1.225e-05 -9.96032e-06 
-6.5e-06 -1.2e-05 -9.96421e-06 
-6.25e-06 -1.225e-05 -9.964e-06 
-6.25e-06 -1.2e-05 -9.96644e-06 
-6e-06 -1.225e-05 -9.95531e-06 
-6e-06 -1.2e-05 -9.96978e-06 
-5.75e-06 -1.225e-05 -9.96395e-06 
-5.75e-06 -1.2e-05 -9.96986e-06 
-5.5e-06 -1.225e-05 -9.97926e-06 
-5.5e-06 -1.2e-05 -9.97237e-06 
-5.25e-06 -1.225e-05 -9.97416e-06 
-5.25e-06 -1.2e-05 -9.97756e-06 
-5e-06 -1.225e-05 -9.96501e-06 
-5e-06 -1.2e-05 -9.96711e-06 
-4.75e-06 -1.225e-05 -9.96936e-06 
-4.75e-06 -1.2e-05 -9.9708e-06 
-4.5e-06 -1.225e-05 -9.98072e-06 
-4.5e-06 -1.2e-05 -9.96933e-06 
-4.25e-06 -1.225e-05 -9.9751e-06 
-4.25e-06 -1.2e-05 -9.96351e-06 
-4e-06 -1.225e-05 -9.97233e-06 
-4e-06 -1.2e-05 -9.96932e-06 
-3.75e-06 -1.225e-05 -9.96586e-06 
-3.75e-06 -1.2e-05 -9.96318e-06 
-3.5e-06 -1.225e-05 -9.96266e-06 
-3.5e-06 -1.2e-05 -9.96754e-06 
-3.25e-06 -1.225e-05 -9.95825e-06 
-3.25e-06 -1.2e-05 -9.96968e-06 
-3e-06 -1.225e-05 -9.96877e-06 
-3e-06 -1.2e-05 -9.97076e-06 
-2.75e-06 -1.225e-05 -9.97647e-06 
-2.75e-06 -1.2e-05 -9.96755e-06 
-2.5e-06 -1.225e-05 -9.96041e-06 
-2.5e-06 -1.2e-05 -9.96914e-06 
-2.25e-06 -1.225e-05 -9.96892e-06 
-2.25e-06 -1.2e-05 -9.97552e-06 
-2e-06 -1.225e-05 -9.97109e-06 
-2e-06 -1.2e-05 -9.97599e-06 
-1.75e-06 -1.225e-05 -9.96668e-06 
-1.75e-06 -1.2e-05 -9.96968e-06 
-1.5e-06 -1.225e-05 -9.96131e-06 
-1.5e-06 -1.2e-05 -9.96569e-06 
-1.25e-06 -1.225e-05 -9.96554e-06 
-1.25e-06 -1.2e-05 -9.96806e-06 
-1e-06 -1.225e-05 -9.97396e-06 
-1e-06 -1.2e-05 -9.97079e-06 
-7.5e-07 -1.225e-05 -9.97226e-06 
-7.5e-07 -1.2e-05 -9.96884e-06 
-5e-07 -1.225e-05 -9.96997e-06 
-5e-07 -1.2e-05 -9.9664e-06 
-2.5e-07 -1.225e-05 -9.9631e-06 
-2.5e-07 -1.2e-05 -9.97365e-06 
0 -1.225e-05 -9.96535e-06 
0 -1.2e-05 -9.96427e-06 
2.5e-07 -1.225e-05 -9.9639e-06 
2.5e-07 -1.2e-05 -9.95666e-06 
5e-07 -1.225e-05 -9.96555e-06 
5e-07 -1.2e-05 -9.95614e-06 
7.5e-07 -1.225e-05 -9.96032e-06 
7.5e-07 -1.2e-05 -9.95692e-06 
1e-06 -1.225e-05 -9.96716e-06 
1e-06 -1.2e-05 -9.96798e-06 
1.25e-06 -1.225e-05 -9.96619e-06 
1.25e-06 -1.2e-05 -9.97614e-06 
1.5e-06 -1.225e-05 -9.9719e-06 
1.5e-06 -1.2e-05 -9.97143e-06 
1.75e-06 -1.225e-05 -9.95788e-06 
1.75e-06 -1.2e-05 -9.97015e-06 
2e-06 -1.225e-05 -9.97e-06 
2e-06 -1.2e-05 -9.96928e-06 
2.25e-06 -1.225e-05 -9.96805e-06 
2.25e-06 -1.2e-05 -9.96822e-06 
2.5e-06 -1.225e-05 -9.96462e-06 
2.5e-06 -1.2e-05 -9.9685e-06 
2.75e-06 -1.225e-05 -9.9592e-06 
2.75e-06 -1.2e-05 -9.96394e-06 
3e-06 -1.225e-05 -9.96825e-06 
3e-06 -1.2e-05 -9.96634e-06 
3.25e-06 -1.225e-05 -9.96112e-06 
3.25e-06 -1.2e-05 -9.95622e-06 
3.5e-06 -1.225e-05 -9.96424e-06 
3.5e-06 -1.2e-05 -9.96692e-06 
3.75e-06 -1.225e-05 -9.96899e-06 
3.75e-06 -1.2e-05 -9.96991e-06 
4e-06 -1.225e-05 -9.96267e-06 
4e-06 -1.2e-05 -9.964e-06 
4.25e-06 -1.225e-05 -9.95349e-06 
4.25e-06 -1.2e-05 -9.97125e-06 
4.5e-06 -1.225e-05 -9.96357e-06 
4.5e-06 -1.2e-05 -9.96562e-06 
4.75e-06 -1.225e-05 -9.96828e-06 
4.75e-06 -1.2e-05 -9.95751e-06 
5e-06 -1.225e-05 -9.96714e-06 
5e-06 -1.2e-05 -9.96221e-06 
5.25e-06 -1.225e-05 -9.97124e-06 
5.25e-06 -1.2e-05 -9.96684e-06 
5.5e-06 -1.225e-05 -9.96807e-06 
5.5e-06 -1.2e-05 -9.96778e-06 
5.75e-06 -1.225e-05 -9.96307e-06 
5.75e-06 -1.2e-05 -9.96943e-06 
6e-06 -1.225e-05 -9.96898e-06 
6e-06 -1.2e-05 -9.96523e-06 
6.25e-06 -1.225e-05 -9.96919e-06 
6.25e-06 -1.2e-05 -9.96274e-06 
6.5e-06 -1.225e-05 -9.96905e-06 
6.5e-06 -1.2e-05 -9.96864e-06 
6.75e-06 -1.225e-05 -9.95663e-06 
6.75e-06 -1.2e-05 -9.98018e-06 
7e-06 -1.225e-05 -9.96326e-06 
7e-06 -1.2e-05 -9.96886e-06 
7.25e-06 -1.225e-05 -9.96865e-06 
7.25e-06 -1.2e-05 -9.96243e-06 
7.5e-06 -1.225e-05 -9.96903e-06 
7.5e-06 -1.2e-05 -9.96406e-06 
7.75e-06 -1.225e-05 -9.97076e-06 
7.75e-06 -1.2e-05 -9.96631e-06 
8e-06 -1.225e-05 -9.96308e-06 
8e-06 -1.2e-05 -9.95667e-06 
8.25e-06 -1.225e-05 -9.97349e-06 
8.25e-06 -1.2e-05 -9.97133e-06 
8.5e-06 -1.225e-05 -9.96328e-06 
8.5e-06 -1.2e-05 -9.95728e-06 
8.75e-06 -1.225e-05 -9.96673e-06 
8.75e-06 -1.2e-05 -9.96274e-06 
9e-06 -1.225e-05 -9.9761e-06 
9e-06 -1.2e-05 -9.96265e-06 
9.25e-06 -1.225e-05 -9.97129e-06 
9.25e-06 -1.2e-05 -9.9753e-06 
9.5e-06 -1.225e-05 -9.96705e-06 
9.5e-06 -1.2e-05 -9.96598e-06 
9.75e-06 -1.225e-05 -9.97321e-06 
9.75e-06 -1.2e-05 -9.96951e-06 
1e-05 -1.225e-05 -9.96848e-06 
1e-05 -1.2e-05 -9.96916e-06 
1.025e-05 -1.225e-05 -9.97612e-06 
1.025e-05 -1.2e-05 -9.95848e-06 
1.05e-05 -1.225e-05 -9.96887e-06 
1.05e-05 -1.2e-05 -9.95728e-06 
1.075e-05 -1.225e-05 -9.96869e-06 
1.075e-05 -1.2e-05 -9.96407e-06 
1.1e-05 -1.225e-05 -9.96937e-06 
1.1e-05 -1.2e-05 -9.96647e-06 
1.125e-05 -1.225e-05 -9.96909e-06 
1.125e-05 -1.2e-05 -9.96357e-06 
1.15e-05 -1.225e-05 -9.97676e-06 
1.15e-05 -1.2e-05 -9.96527e-06 
1.175e-05 -1.225e-05 -9.97797e-06 
1.175e-05 -1.2e-05 -9.96324e-06 
1.2e-05 -1.225e-05 -9.96197e-06 
1.2e-05 -1.2e-05 -9.95853e-06 
1.225e-05 -1.225e-05 -9.95739e-06 
1.225e-05 -1.2e-05 -9.95698e-06 
-1.2e-05 -1.175e-05 -9.96842e-06 
-1.225e-05 -1.175e-05 -9.96478e-06 
-1.175e-05 -1.175e-05 -9.96562e-06 
-1.15e-05 -1.175e-05 -9.96527e-06 
-1.125e-05 -1.175e-05 -9.9619e-06 
-1.1e-05 -1.175e-05 -9.96139e-06 
-1.075e-05 -1.175e-05 -9.95604e-06 
-1.05e-05 -1.175e-05 -9.96752e-06 
-1.025e-05 -1.175e-05 -9.96288e-06 
-1e-05 -1.175e-05 -9.9667e-06 
-9.75e-06 -1.175e-05 -9.96723e-06 
-9.5e-06 -1.175e-05 -9.96459e-06 
-9.25e-06 -1.175e-05 -9.9674e-06 
-9e-06 -1.175e-05 -9.96707e-06 
-8.75e-06 -1.175e-05 -9.96235e-06 
-8.5e-06 -1.175e-05 -9.96113e-06 
-8.25e-06 -1.175e-05 -9.96847e-06 
-8e-06 -1.175e-05 -9.96843e-06 
-7.75e-06 -1.175e-05 -9.96891e-06 
-7.5e-06 -1.175e-05 -9.97788e-06 
-7.25e-06 -1.175e-05 -9.97427e-06 
-7e-06 -1.175e-05 -9.96742e-06 
-6.75e-06 -1.175e-05 -9.96153e-06 
-6.5e-06 -1.175e-05 -9.96232e-06 
-6.25e-06 -1.175e-05 -9.97815e-06 
-6e-06 -1.175e-05 -9.96572e-06 
-5.75e-06 -1.175e-05 -9.9668e-06 
-5.5e-06 -1.175e-05 -9.96982e-06 
-5.25e-06 -1.175e-05 -9.96997e-06 
-5e-06 -1.175e-05 -9.96161e-06 
-4.75e-06 -1.175e-05 -9.97714e-06 
-4.5e-06 -1.175e-05 -9.95838e-06 
-4.25e-06 -1.175e-05 -9.95821e-06 
-4e-06 -1.175e-05 -9.97255e-06 
-3.75e-06 -1.175e-05 -9.96754e-06 
-3.5e-06 -1.175e-05 -9.97066e-06 
-3.25e-06 -1.175e-05 -9.97383e-06 
-3e-06 -1.175e-05 -9.96328e-06 
-2.75e-06 -1.175e-05 -9.95785e-06 
-2.5e-06 -1.175e-05 -9.95804e-06 
-2.25e-06 -1.175e-05 -9.96334e-06 
-2e-06 -1.175e-05 -9.97574e-06 
-1.75e-06 -1.175e-05 -9.96826e-06 
-1.5e-06 -1.175e-05 -9.96191e-06 
-1.25e-06 -1.175e-05 -9.97144e-06 
-1e-06 -1.175e-05 -9.96619e-06 
-7.5e-07 -1.175e-05 -9.96398e-06 
-5e-07 -1.175e-05 -9.95738e-06 
-2.5e-07 -1.175e-05 -9.97941e-06 
0 -1.175e-05 -9.97015e-06 
2.5e-07 -1.175e-05 -9.97283e-06 
5e-07 -1.175e-05 -9.95832e-06 
7.5e-07 -1.175e-05 -9.9609e-06 
1e-06 -1.175e-05 -9.97192e-06 
1.25e-06 -1.175e-05 -9.96801e-06 
1.5e-06 -1.175e-05 -9.96743e-06 
[...]
POINT_DATA 15223
SCALARS Velocities float 1
LOOKUP_TABLE default
-3.37639e-06
-3.37639e-06
-3.37639e-06
-3.48841e-06
-3.37639e-06
-3.60245e-06
-3.60245e-06
-3.67578e-06
-3.60245e-06
-3.58111e-06
-3.58111e-06
-3.58111e-06
-3.58111e-06
-3.39376e-06
-3.58111e-06
-3.61429e-06
-3.61429e-06
-3.35618e-06
-3.61429e-06
-3.57089e-06
-3.57089e-06
-3.57089e-06
-3.37789e-06
-3.37789e-06
-3.61429e-06
-3.37789e-06
-3.57089e-06
-3.45092e-06
-3.32865e-06
-3.32865e-06
-3.32865e-06
-3.32865e-06
-3.32865e-06
-3.40518e-06
-3.40518e-06
-3.40518e-06
-3.40518e-06
-3.40518e-06
-3.43653e-06
-3.43653e-06
-3.43653e-06
-3.43653e-06
-3.43653e-06
-3.65881e-06
-3.65881e-06
-3.65881e-06
-3.65881e-06
-3.65881e-06
-3.29058e-06
-3.29058e-06
-3.40177e-06
-3.29058e-06
-3.60089e-06
-3.63173e-06
-3.49375e-06
-3.57531e-06
-3.61504e-06
-3.68043e-06
-3.48275e-06
-3.58408e-06
-3.28036e-06
-3.53954e-06
-3.42621e-06
-3.58671e-06
-3.49829e-06
-3.84118e-06
-3.59525e-06
-3.50498e-06
-3.41482e-06
-3.29647e-06
-3.45611e-06
-3.40385e-06
-3.56784e-06
-3.57728e-06
-3.59611e-06
-3.7725e-06
-3.47598e-06
-3.44298e-06
-3.35809e-06
-3.41539e-06
-3.42666e-06
-3.27464e-06
-3.31818e-06
-3.46075e-06
-3.53805e-06
-3.45475e-06
-3.63466e-06
-3.23685e-06
-3.66727e-06
-3.3744e-06
-3.50571e-06
-3.44596e-06
-3.52382e-06
-3.16191e-06
-3.34721e-06
-3.41731e-06
-3.39633e-06
-3.50282e-06
-3.44131e-06
-3.61069e-06
-3.49997e-06
-3.54193e-06
-3.42159e-06
-3.32244e-06
-3.38458e-06
-3.40472e-06
-3.33943e-06
-3.45939e-06
-3.59245e-06
-3.41211e-06
-3.59781e-06
-3.40354e-06
-3.54247e-06
-3.47915e-06
-3.44758e-06
-3.53422e-06
-3.54721e-06
-3.53955e-06
-3.40599e-06
-3.20142e-06
-3.29516e-06
-3.27221e-06
-3.1722e-06
-3.32552e-06
-3.33041e-06
-3.53562e-06
-3.27396e-06
-3.40666e-06
-3.32599e-06
-3.62686e-06
-3.54671e-06
-3.34011e-06
-3.35146e-06
-3.43191e-06
-3.39876e-06
-3.36688e-06
-3.63696e-06
-3.26548e-06
-3.49775e-06
-3.49471e-06
-3.50045e-06
-3.57165e-06
-3.6341e-06
-3.40481e-06
-3.51851e-06
-3.56371e-06
-3.48113e-06
-3.39487e-06
-3.33374e-06
-3.18557e-06
-3.32552e-06
-3.24245e-06
-3.41101e-06
-3.2487e-06
-3.31963e-06
-3.28988e-06
-3.43066e-06
-3.46073e-06
-3.54103e-06
-3.42882e-06
-3.40611e-06
-3.4961e-06
-3.48971e-06
-3.37307e-06
-3.46298e-06
-3.4665e-06
-3.52131e-06
-3.434e-06
-3.42657e-06
-3.36748e-06
-3.42345e-06
-3.38999e-06
-3.36245e-06
-3.49135e-06
-3.16286e-06
-3.57007e-06
-3.43812e-06
-3.43272e-06
-3.45916e-06
-3.39853e-06
-3.46755e-06
-3.3796e-06
-3.17572e-06
-3.47051e-06
-3.33773e-06
-3.33142e-06
-3.28333e-06
-3.42791e-06
-3.5046e-06
-3.32973e-06
-3.39764e-06
-3.26597e-06
-3.37189e-06
-3.45669e-06
-3.62765e-06
-3.3213e-06
-3.63181e-06
-3.37678e-06
-3.52549e-06
-3.5035e-06
-3.40823e-06
-3.60932e-06
-3.50923e-06
-3.5486e-06
-3.51647e-06
-3.66921e-06
-3.49721e-06
-3.48835e-06
-3.54135e-06
-3.44097e-06
-3.42371e-06
-3.51677e-06
-3.4417e-06
-3.25916e-06
-3.44355e-06
-3.34314e-06
-3.44572e-06
-3.50352e-06
-3.56563e-06
-3.46877e-06
-3.31631e-06
-3.39743e-06
-3.51952e-06
-3.3165e-06
-3.51339e-06
-3.28552e-06
-3.53377e-06
-3.49703e-06
-3.56198e-06
-3.2721e-06
-3.32986e-06
-3.47416e-06
-3.35113e-06
-3.34622e-06
-3.43181e-06
-3.3176e-06
-3.49435e-06
-3.40484e-06
-3.67383e-06
-3.42614e-06
-3.48252e-06
-3.42092e-06
-3.51517e-06
-3.31932e-06
-3.71941e-06
-3.38079e-06
-3.47006e-06
-3.41379e-06
-3.3793e-06
-3.57531e-06
-3.61504e-06
-3.44653e-06
-3.31946e-06
-3.40577e-06
-3.34336e-06
-3.2838e-06
-3.5364e-06
-3.41527e-06
-3.46401e-06
-3.60302e-06
-3.68001e-06
-3.4408e-06
-3.42375e-06
-3.34647e-06
-3.53845e-06
-3.48895e-06
-3.68403e-06
-3.56144e-06
-3.5393e-06
-3.69538e-06
-3.43827e-06
-3.40369e-06
-3.4781e-06
-3.57649e-06
-3.55617e-06
-3.57116e-06
-3.44796e-06
-3.48967e-06
-3.37119e-06
-3.41899e-06
-3.44421e-06
-3.25946e-06
-3.50308e-06
-3.51497e-06
-3.64013e-06
-3.46635e-06
-3.62492e-06
-3.19275e-06
-3.39178e-06
-3.51479e-06
-3.28383e-06
-3.39094e-06
-3.52555e-06
-3.45901e-06
-3.33717e-06
-3.43916e-06
-3.35567e-06
-3.44719e-06
-3.37373e-06
-3.28289e-06
-3.25908e-06
-3.18091e-06
-3.57902e-06
-3.53039e-06
-3.61837e-06
-3.49104e-06
-3.31358e-06
-3.45993e-06
-3.66704e-06
-3.57634e-06
-3.33223e-06
-3.4428e-06
-3.36299e-06
-3.32022e-06
-3.43346e-06
-3.27458e-06
-3.53896e-06
-3.51307e-06
-3.42798e-06
-3.50984e-06
-3.39457e-06
-3.49013e-06
-3.5212e-06
-3.32002e-06
-3.34298e-06
-3.43791e-06
-3.39776e-06
-3.34054e-06
-3.33648e-06
-3.48631e-06
-3.50006e-06
-3.53709e-06
-3.46027e-06
-3.46278e-06
-3.55407e-06
-3.39004e-06
-3.32008e-06
-3.44034e-06
-3.43454e-06
-3.24056e-06
-3.28319e-06
-3.44997e-06
-3.36804e-06
-3.34192e-06
-3.22049e-06
-3.33782e-06
-3.52231e-06
-3.47064e-06
-3.41445e-06
-3.31946e-06
-3.50193e-06
-3.23966e-06
-3.34888e-06
-3.48238e-06
-3.33485e-06
-3.26787e-06
-3.49134e-06
-3.59625e-06
-3.539e-06
-3.41695e-06
-3.39127e-06
-3.45643e-06
-3.24248e-06
-3.35593e-06
-3.47002e-06
-3.59518e-06
-3.47962e-06
-3.42555e-06
-3.51657e-06
-3.33201e-06
-3.38447e-06
-3.38975e-06
-3.39126e-06
-3.47351e-06
-3.46342e-06
-3.35906e-06
-3.48481e-06
-3.47653e-06
-3.34764e-06
-3.34061e-06
-3.52315e-06
-3.5292e-06
-3.66665e-06
-3.49338e-06
-3.60152e-06
-3.61024e-06
-3.40286e-06
-3.71391e-06
-3.64795e-06
-3.36906e-06
-3.44326e-06
-3.45884e-06
-3.41718e-06
-3.4571e-06
-3.3245e-06
-3.2852e-06
-3.39171e-06
-3.42702e-06
-3.23265e-06
-3.3427e-06
-3.55621e-06
-3.42631e-06
-3.53877e-06
-3.63357e-06
-3.36445e-06
-3.19095e-06
-3.30891e-06
-3.56868e-06
-3.36699e-06
-3.43983e-06
-3.42438e-06
-3.40814e-06
-3.31312e-06
-3.57451e-06
-3.53428e-06
-3.56768e-06
-3.35421e-06
-3.36159e-06
-3.52883e-06
-3.35596e-06
-3.2484e-06
-3.34458e-06
-3.35075e-06
-3.40657e-06
-3.43507e-06
-3.5602e-06
-3.44546e-06
-3.33858e-06
-3.47636e-06
-3.5686e-06
-3.42568e-06
-3.58756e-06
-3.23886e-06
-3.29385e-06
-3.49918e-06
-3.50576e-06
-3.42199e-06
-3.3764e-06
-3.2562e-06
-3.24664e-06
-3.60972e-06
-3.4523e-06
-3.32092e-06
-3.41935e-06
-3.38834e-06
-3.40653e-06
-3.53329e-06
-3.2796e-06
-3.23966e-06
-3.54416e-06
-3.52546e-06
-3.54635e-06
-3.6976e-06
-3.51272e-06
-3.1668e-06
-3.30021e-06
-3.24049e-06
-3.32747e-06
-3.21257e-06
-3.48114e-06
-3.5289e-06
-3.12372e-06
-3.24317e-06
-3.44338e-06
-3.36219e-06
-3.20626e-06
-3.2888e-06
-3.34844e-06
-3.38912e-06
-3.39895e-06
-3.40647e-06
-3.42212e-06
-3.45726e-06
-3.54158e-06
-3.47733e-06
-3.53712e-06
-3.53511e-06
-3.38187e-06
-3.49364e-06
-3.54983e-06
-3.37304e-06
-3.39795e-06
-3.39608e-06
-3.38781e-06
-3.45594e-06
-3.49771e-06
-3.68504e-06
-3.56813e-06
-3.42631e-06
-3.51148e-06
-3.4271e-06
-3.44428e-06
-3.68759e-06
-3.49037e-06
-3.39037e-06
-3.49947e-06
-3.44462e-06
-3.09103e-06
-3.40277e-06
-3.4241e-06
-3.35429e-06
-3.58176e-06
-3.35624e-06
-3.39086e-06
-3.11635e-06
-3.36323e-06
-3.55978e-06
-3.47297e-06
-3.37343e-06
-3.37491e-06
-3.61589e-06
-3.28279e-06
-3.47477e-06
-3.48036e-06
-3.43449e-06
-3.29974e-06
-3.37452e-06
-3.54495e-06
-3.49228e-06
-3.19313e-06
-3.39998e-06
-3.49356e-06
-3.5707e-06
-3.35171e-06
-3.51027e-06
-3.30303e-06
-3.2735e-06
-3.46676e-06
-3.37155e-06
-3.51557e-06
-3.55631e-06
-3.34286e-06
-3.27424e-06
-3.45768e-06
-3.5846e-06
-3.35783e-06
-3.39438e-06
-3.41625e-06
-3.47984e-06
-3.36668e-06
-3.37187e-06
-3.29007e-06
-3.45271e-06
-3.36375e-06
-3.34132e-06
-3.41616e-06
-3.34583e-06
-3.52546e-06
-3.53555e-06
-3.46324e-06
-3.44217e-06
-3.44707e-06
-3.32077e-06
-3.33792e-06
-3.42851e-06
-3.38108e-06
-3.38512e-06
-3.35905e-06
-3.60603e-06
-3.46634e-06
-3.30396e-06
-3.40209e-06
-3.3794e-06
-3.4344e-06
-3.42187e-06
-3.44465e-06
-3.38151e-06
-3.45672e-06
-3.33472e-06
-3.28969e-06
-3.50647e-06
-3.43339e-06
-3.57826e-06
-3.52655e-06
-3.43154e-06
-3.44403e-06
-3.32594e-06
-3.37064e-06
-3.4661e-06
-3.38657e-06
-3.50627e-06
-3.49767e-06
-3.46372e-06
-3.39863e-06
-3.3799e-06
-3.29188e-06
-3.23566e-06
-3.27751e-06
-3.37238e-06
-3.3806e-06
-3.39102e-06
-3.55577e-06
-3.45722e-06
-3.31524e-06
-3.3234e-06
-3.74141e-06
-3.51996e-06
-3.50975e-06
-3.53833e-06
-3.62947e-06
-3.70401e-06
-3.47719e-06
-3.42387e-06
-3.40608e-06
-3.43907e-06
-3.53628e-06
-3.56449e-06
-3.44925e-06
-3.29985e-06
-3.56279e-06
-3.5027e-06
-3.3222e-06
-3.27274e-06
-3.34356e-06
-3.33751e-06
-3.43349e-06
-3.57032e-06
-3.30878e-06
-3.33121e-06
-3.33349e-06
-3.29248e-06
-3.41149e-06
-3.30843e-06
-3.28264e-06
-3.33415e-06
-3.54559e-06
-3.69494e-06
-3.36449e-06
-3.52358e-06
-3.43967e-06
-3.31482e-06
-3.47889e-06
-3.5186e-06
-3.36829e-06
-3.22207e-06
-3.35855e-06
-3.38674e-06
-3.55518e-06
-3.2251e-06
-3.48364e-06
-3.22173e-06
-3.45349e-06
-3.42639e-06
-3.49051e-06
-3.39881e-06
-3.29583e-06
-3.46324e-06
-3.51126e-06
-3.59288e-06
-3.29129e-06
-3.26431e-06
-3.57078e-06
-3.36759e-06
-3.42057e-06
-3.35587e-06
-3.30625e-06
-3.3625e-06
-3.52154e-06
-3.4318e-06
-3.39863e-06
-3.58935e-06
-3.35659e-06
-3.23166e-06
-3.57148e-06
-3.35742e-06
-3.33916e-06
-3.55393e-06
-3.41317e-06
-3.3218e-06
-3.3653e-06
-3.33829e-06
-3.64017e-06
-3.62884e-06
-3.37382e-06
-3.56837e-06
-3.51434e-06
-3.8059e-06
-3.57199e-06
-3.39504e-06
-3.21834e-06
-3.70272e-06
-3.76544e-06
-3.32224e-06
-3.46632e-06
-3.48691e-06
-3.31732e-06
-3.30085e-06
-3.39735e-06
-3.47951e-06
-3.44529e-06
-3.4856e-06
-3.51039e-06
-3.50171e-06
-3.58759e-06
-3.52853e-06
-3.32876e-06
-3.45511e-06
-3.57908e-06
-3.67237e-06
-3.58606e-06
-3.52075e-06
-3.46206e-06
-3.50112e-06
-3.37502e-06
-3.55499e-06
-3.33531e-06
-3.39502e-06
-3.46235e-06
-3.57505e-06
-3.51161e-06
-3.37427e-06
-3.25114e-06
-3.27658e-06
-3.47922e-06
-3.41466e-06
-3.63805e-06
-3.56659e-06
-3.47028e-06
-3.33491e-06
-3.41896e-06
-3.54359e-06
-3.39345e-06
-3.25833e-06
-3.41946e-06
-3.46197e-06
-3.60737e-06
-3.52296e-06
-3.47519e-06
-3.26801e-06
-3.29568e-06
-3.50872e-06
-3.49821e-06
-3.43307e-06
-3.45171e-06
-3.20196e-06
-3.27313e-06
-3.37358e-06
-3.25718e-06
-3.56229e-06
-3.49294e-06
-3.55914e-06
-3.25207e-06
-3.3737e-06
-3.32812e-06
-3.46749e-06
-3.59288e-06
-3.56646e-06
-3.7191e-06
-3.31394e-06
-3.24494e-06
-3.42592e-06
-3.49703e-06
-3.5368e-06
-3.51422e-06
-3.65603e-06
-3.27271e-06
-3.33995e-06
-3.45805e-06
-3.4969e-06
-3.49703e-06
-3.40249e-06
-3.23572e-06
-3.41247e-06
-3.55562e-06
-3.57723e-06
-3.60381e-06
-3.47191e-06
-3.38724e-06
-3.37038e-06
-3.28632e-06
-3.61523e-06
-3.61459e-06
-3.4841e-06
-3.61387e-06
-3.40451e-06
-3.3897e-06
-3.40881e-06
-3.19074e-06
-3.126e-06
-3.30857e-06
-3.62478e-06
-3.45997e-06
-3.57248e-06
-3.72424e-06
-3.55313e-06
-3.59473e-06
-3.267e-06
-3.36698e-06
-3.43452e-06
-3.2413e-06
-3.48776e-06
-3.34341e-06
-3.43675e-06
-3.52573e-06
-3.44272e-06
-3.43479e-06
-3.6677e-06
-3.60019e-06
-3.48499e-06
-3.47961e-06
-3.70287e-06
-3.47952e-06
-3.45923e-06
-3.38096e-06
-3.28296e-06
-3.42591e-06
-3.49181e-06
-3.53538e-06
-3.37739e-06
-3.38901e-06
-3.69797e-06
-3.47734e-06
-3.47085e-06
-3.59313e-06
-3.6663e-06
-3.57588e-06
-3.37469e-06
-3.38976e-06
-3.34147e-06
-3.31205e-06
-3.18237e-06
-3.29741e-06
-3.24375e-06
-3.41825e-06
-3.51912e-06
-3.45697e-06
-3.5932e-06
-3.33119e-06
-3.43019e-06
-3.18907e-06
-3.52318e-06
-3.59148e-06
-3.56857e-06
-3.36872e-06
-3.38106e-06
-3.46198e-06
-3.50015e-06
-3.49263e-06
-3.52039e-06
-3.38387e-06
-3.59801e-06
-3.29195e-06
-3.14217e-06
-3.26009e-06
-3.7191e-06
-3.29965e-06
-3.41484e-06
-3.49573e-06
-3.49789e-06
-3.27064e-06
-3.61997e-06
-3.49936e-06
-3.46914e-06
-3.45746e-06
-3.54522e-06
-3.48097e-06
-3.47796e-06
-3.45093e-06
-3.373e-06
-3.48886e-06
-3.28151e-06
-3.13976e-06
-3.36271e-06
-3.26001e-06
-3.56007e-06
-3.61925e-06
-3.57241e-06
-3.35159e-06
-3.26292e-06
-3.2826e-06
-3.7074e-06
-3.37412e-06
-3.20629e-06
-3.27026e-06
-3.45716e-06
-3.70575e-06
-3.2773e-06
-3.48815e-06
-3.37879e-06
-3.43755e-06
-3.46248e-06
-3.4241e-06
-3.48306e-06
-3.31813e-06
-3.5722e-06
-3.33863e-06
-3.512e-06
-3.47766e-06
-3.49508e-06
-3.68152e-06
-3.51233e-06
-3.486e-06
-3.59288e-06
-3.51189e-06
-3.32744e-06
-3.40874e-06
-3.43247e-06
-3.47545e-06
-3.31773e-06
-3.38928e-06
-3.34834e-06
-3.44395e-06
-3.32253e-06
-3.36276e-06
-3.39229e-06
-3.55962e-06
-3.38735e-06
-3.47931e-06
-3.64122e-06
-3.52284e-06
-3.5102e-06
-3.35779e-06
-3.43187e-06
-3.51208e-06
-3.56357e-06
-3.45204e-06
-3.46582e-06
-3.6517e-06
-3.37778e-06
-3.26867e-06
-3.37787e-06
-3.35982e-06
-3.60299e-06
-3.44326e-06
-3.34298e-06
-3.33389e-06
-3.36247e-06
-3.44616e-06
-3.37142e-06
-3.59967e-06
-3.42852e-06
-3.38594e-06
-3.4431e-06
-3.64515e-06
-3.21901e-06
-3.58734e-06
-3.43191e-06
-3.38718e-06
-3.34114e-06
-3.5071e-06
-3.24615e-06
-3.21751e-06
-3.21494e-06
-3.41484e-06
-3.35787e-06
-3.33444e-06
-3.39222e-06
-3.48488e-06
-3.23181e-06
-3.43216e-06
-3.50353e-06
-3.43841e-06
-3.43891e-06
-3.70372e-06
-3.29941e-06
-3.45079e-06
-3.52853e-06
-3.44956e-06
-3.4695e-06
-3.45477e-06
-3.421e-06
-3.5464e-06
-3.37172e-06
-3.50732e-06
-3.77578e-06
-3.71862e-06
-3.49658e-06
-3.61101e-06
-3.47811e-06
-3.45427e-06
-3.4324e-06
-3.3937e-06
-3.51074e-06
-3.47802e-06
-3.44834e-06
-3.43956e-06
-3.72584e-06
-3.49948e-06
-3.51741e-06
-3.34677e-06
-3.44435e-06
-3.64237e-06
-3.50323e-06
-3.5469e-06
-3.30409e-06
-3.47774e-06
-3.51935e-06
-3.41264e-06
-3.35478e-06
-3.502e-06
-3.48415e-06
-3.38353e-06
-3.37122e-06
-3.37925e-06
-3.53883e-06
-3.77725e-06
-3.51029e-06
-3.50131e-06
-3.30981e-06
-3.41407e-06
-3.41553e-06
-3.51344e-06
-3.31798e-06
-3.5267e-06
-3.45568e-06
-3.46198e-06
-3.36891e-06
-3.33396e-06
-3.55144e-06
-3.49928e-06
-3.41983e-06
-3.54348e-06
-3.55333e-06
-3.37624e-06
-3.29019e-06
-3.39366e-06
-3.43281e-06
-3.34615e-06
-3.33505e-06
-3.47501e-06
-3.37069e-06
-3.39423e-06
-3.48039e-06
-3.53871e-06
-3.24976e-06
-3.39385e-06
-3.41379e-06
-3.27421e-06
-3.37947e-06
-3.38317e-06
-3.21695e-06
-3.49845e-06
-3.42232e-06
-3.40094e-06
-3.43042e-06
-3.3086e-06
-3.50413e-06
-3.39962e-06
-3.51907e-06
-3.48411e-06
-3.51046e-06
-3.36511e-06
-3.33444e-06
-3.50935e-06
-3.38842e-06
-3.42651e-06
-3.5132e-06
-3.54481e-06
-3.48728e-06
-3.45146e-06
-3.42912e-06
-3.47501e-06
-3.46679e-06
-3.40818e-06
-3.43395e-06
-3.58077e-06
-3.67679e-06
-3.47372e-06
-3.60782e-06
-3.44024e-06
-3.57612e-06
-3.4137e-06
-3.40208e-06
-3.55399e-06
-3.40859e-06
-3.37771e-06
-3.55419e-06
-3.46441e-06
-3.294e-06
-3.43086e-06
-3.45963e-06
-3.44105e-06
-3.3403e-06
-3.38942e-06
-3.42404e-06
-3.53438e-06
-3.50276e-06
-3.33683e-06
-3.18308e-06
-3.27104e-06
-3.572e-06
-3.6784e-06
-3.5998e-06
-3.37947e-06
-3.34828e-06
-3.60217e-06
-3.50076e-06
-3.45044e-06
-3.20097e-06
-3.41853e-06
-3.57686e-06
-3.64833e-06
-3.30737e-06
-3.39957e-06
-3.5846e-06
-3.50873e-06
-3.5532e-06
-3.35864e-06
-3.37705e-06
-3.36946e-06
-3.50887e-06
-3.54134e-06
-3.35996e-06
-3.41857e-06
-3.61965e-06
-3.62427e-06
-3.57271e-06
-3.81134e-06
-3.60524e-06
-3.34545e-06
-3.35743e-06
-3.50827e-06
-3.32323e-06
-3.53647e-06
-3.43532e-06
-3.44218e-06
-3.49129e-06
-3.56168e-06
-3.4393e-06
-3.50622e-06
-3.39448e-06
-3.38053e-06
-3.531e-06
-3.23574e-06
-3.43715e-06
-3.6835e-06
-3.65404e-06
-3.42318e-06
-3.25961e-06
-3.35751e-06
-3.39939e-06
-3.29281e-06
-3.46764e-06
-3.33863e-06
-3.24845e-06
-3.5359e-06
-3.54858e-06
-3.53847e-06
-3.49261e-06
-3.4694e-06
-3.53587e-06
-3.38842e-06
-3.40317e-06
-3.38704e-06
-3.34415e-06
-3.43718e-06
-3.65538e-06
-3.45847e-06
-3.36735e-06
-3.43045e-06
-3.63305e-06
-3.25637e-06
-3.45411e-06
-3.62513e-06
-3.60711e-06
-3.78161e-06
-3.57698e-06
-3.80979e-06
-3.45058e-06
-3.29553e-06
-3.40978e-06
-3.46635e-06
-3.53318e-06
-3.49024e-06
-3.4608e-06
-3.45677e-06
-3.51748e-06
-3.58282e-06
-3.56079e-06
-3.34157e-06
-3.2841e-06
-3.26839e-06
-3.43446e-06
-3.43429e-06
-3.38964e-06
-3.38543e-06
-3.26088e-06
-3.33648e-06
-3.45581e-06
-3.60061e-06
-3.4581e-06
-3.42665e-06
-3.41049e-06
-3.28711e-06
-3.49206e-06
-3.52353e-06
-3.7094e-06
-3.48242e-06
-3.54021e-06
-3.66762e-06
-3.62409e-06
-3.2398e-06
-3.46864e-06
-3.50044e-06
-3.48794e-06
-3.60115e-06
-3.58739e-06
-3.78263e-06
-3.45364e-06
-3.49709e-06
-3.59078e-06
-3.35749e-06
-3.24493e-06
-3.37469e-06
-3.44143e-06
-3.27381e-06
-3.36657e-06
-3.62532e-06
-3.52717e-06
-3.50872e-06
-3.28395e-06
-3.27296e-06
-3.61766e-06
-3.557e-06
-3.42501e-06
-3.34451e-06
-3.51577e-06
-3.36351e-06
-3.57884e-06
-3.49469e-06
-3.40599e-06
-3.44241e-06
-3.27284e-06
-3.39875e-06
-3.67748e-06
-3.37696e-06
-3.41127e-06
-3.5971e-06
-3.51765e-06
-3.31583e-06
-3.43892e-06
-3.40793e-06
-3.42076e-06
-3.38624e-06
-3.39872e-06
-3.66062e-06
-3.49974e-06
-3.55751e-06
-3.51881e-06
-3.68961e-06
-3.38704e-06
-3.39839e-06
-3.40294e-06
-3.46563e-06
-3.47822e-06
-3.53108e-06
-3.45777e-06
-3.46573e-06
-3.60438e-06
-3.56257e-06
-3.25804e-06
-3.42706e-06
-3.53482e-06
-3.53588e-06
-3.62628e-06
-3.41081e-06
-3.65794e-06
-3.41072e-06
-3.40417e-06
-3.4554e-06
-3.50794e-06
-3.64066e-06
-3.56874e-06
-3.73394e-06
-3.46965e-06
-3.53327e-06
-3.66185e-06
-3.45167e-06
-3.4951e-06
-3.37267e-06
-3.39026e-06
-3.35656e-06
-3.66231e-06
-3.5214e-06
-3.38843e-06
-3.55394e-06
-3.22946e-06
-3.4508e-06
-3.52557e-06
-3.30519e-06
-3.36576e-06
-3.41242e-06
-3.67526e-06
-3.55585e-06
-3.56497e-06
-3.53818e-06
-3.40467e-06
-3.47769e-06
-3.33832e-06
-3.53647e-06
-3.32196e-06
-3.4477e-06
-3.38625e-06
-3.44701e-06
-3.37707e-06
-3.3947e-06
-3.59137e-06
-3.55502e-06
-3.65127e-06
-3.48937e-06
-3.4313e-06
-3.49973e-06
-3.38794e-06
-3.5255e-06
-3.31072e-06
-3.2943e-06
-3.34104e-06
-3.54912e-06
-3.63318e-06
-3.4345e-06
-3.49694e-06
-3.18602e-06
-3.29768e-06
-3.50828e-06
-3.48464e-06
-3.52405e-06
-3.53094e-06
-3.46945e-06
-3.30164e-06
-3.34776e-06
-3.47757e-06
-3.53693e-06
-3.40136e-06
-3.3271e-06
-3.27256e-06
-3.35821e-06
-3.53528e-06
-3.49113e-06
-3.23008e-06
-3.36274e-06
-3.24016e-06
-3.35515e-06
-3.3598e-06
-3.42803e-06
-3.37214e-06
-3.41867e-06
-3.37146e-06
-3.51655e-06
-3.64933e-06
-3.40294e-06
-3.39767e-06
-3.33597e-06
-3.31576e-06
-3.47183e-06
-3.50501e-06
-3.42941e-06
-3.50981e-06
-3.29878e-06
-3.39037e-06
-3.43122e-06
-3.60616e-06
-3.50884e-06
-3.47265e-06
-3.3909e-06
-3.41079e-06
-3.42471e-06
-3.5694e-06
-3.43358e-06
-3.66123e-06
-3.60086e-06
-3.66615e-06
-3.52071e-06
-3.20294e-06
-3.31322e-06
-3.48342e-06
-3.4399e-06
-3.28241e-06
-3.46805e-06
-3.4624e-06
-3.40311e-06
-3.46831e-06
-3.46645e-06
-3.36357e-06
-3.36388e-06
-3.49776e-06
-3.49522e-06
-3.40227e-06
-3.24017e-06
-3.14746e-06
-3.27151e-06
-3.43337e-06
-3.62642e-06
-3.4307e-06
-3.16087e-06
-3.29456e-06
-3.53631e-06
-3.50705e-06
-3.29743e-06
-3.486e-06
-3.47167e-06
-3.51499e-06
-3.43572e-06
-3.44692e-06
-3.63211e-06
-3.36525e-06
-3.39711e-06
-3.48435e-06
-3.59753e-06
-3.55797e-06
-3.3973e-06
-3.61694e-06
-3.60637e-06
-3.57992e-06
-3.34349e-06
-3.51213e-06
-3.25849e-06
-3.3048e-06
-3.5932e-06
-3.45132e-06
-3.42509e-06
-3.53209e-06
-3.454e-06
-3.61077e-06
-3.34444e-06
-3.1828e-06
-3.3239e-06
-3.54904e-06
-3.58927e-06
-3.55373e-06
-3.3946e-06
-3.37886e-06
-3.36194e-06
-3.50105e-06
-3.34945e-06
-3.34589e-06
-3.4684e-06
-3.42597e-06
-3.42814e-06
-3.38336e-06
-3.31711e-06
-3.27369e-06
-3.36058e-06
-3.36054e-06
-3.33243e-06
-3.54255e-06
-3.33302e-06
-3.33144e-06
-3.45255e-06
-3.33597e-06
-3.46709e-06
-3.37357e-06
-3.41876e-06
-3.44773e-06
-3.50316e-06
-3.45329e-06
-3.45277e-06
-3.24326e-06
-3.37689e-06
-3.33473e-06
-3.36495e-06
-3.31768e-06
-3.48076e-06
-3.38901e-06
-3.39102e-06
-3.35975e-06
-3.34361e-06
-3.42165e-06
-3.49261e-06
-3.43088e-06
-3.52966e-06
-3.49654e-06
-3.42755e-06
-3.39091e-06
-3.36912e-06
-3.21639e-06
-3.29143e-06
-3.29434e-06
-3.40392e-06
-3.42639e-06
-3.49666e-06
-3.50826e-06
-3.52824e-06
-3.39672e-06
-3.70048e-06
-3.49087e-06
-3.43848e-06
-3.33541e-06
-3.19615e-06
-3.47558e-06
-3.64123e-06
-3.53834e-06
-3.37989e-06
-3.44583e-06
-3.59549e-06
-3.45069e-06
-3.52895e-06
-3.39493e-06
-3.33739e-06
-3.34522e-06
-3.49352e-06
-3.52363e-06
-3.28934e-06
-3.40523e-06
-3.25088e-06
-3.16655e-06
-3.15533e-06
-3.46352e-06
-3.4682e-06
-3.57115e-06
-3.53904e-06
-3.46466e-06
-3.57697e-06
-3.50274e-06
-3.44764e-06
-3.47418e-06
-3.43548e-06
-3.49915e-06
-3.35468e-06
-3.31264e-06
-3.35221e-06
-3.36926e-06
-3.68843e-06
-3.43235e-06
-3.37474e-06
-3.32317e-06
-3.40633e-06
-3.49053e-06
-3.47592e-06
-3.62686e-06
-3.50672e-06
-3.48024e-06
-3.49239e-06
-3.54813e-06
-3.46639e-06
-3.58092e-06
-3.57057e-06
-3.43726e-06
-3.52757e-06
-3.40193e-06
-3.64015e-06
-3.4682e-06
-3.36425e-06
-3.19826e-06
-3.55914e-06
-3.4175e-06
-3.4825e-06
-3.33413e-06
-3.37357e-06
-3.51361e-06
-3.7594e-06
-3.40805e-06
-3.29403e-06
-3.45867e-06
-3.50092e-06
-3.50668e-06
-3.4403e-06