# vtk DataFile Version 2.0
3D Surface
ASCII
DATASET UNSTRUCTURED_GRID
POINTS 15617 float
-1.2e-05 -1.225e-05 -1.08317e-05 
-1.2e-05 -1.2e-05 -1.08228e-05 
-1.225e-05 -1.225e-05 -1.08172e-05 
-1.225e-05 -1.2e-05 -1.08158e-05 
-1.175e-05 -1.225e-05 -1.0837e-05 
-1.175e-05 -1.2e-05 -1.08233e-05 
-1.15e-05 -1.225e-05 -1.08269e-05 
-1.15e-05 -1.2e-05 -1.08198e-05 
-1.125e-05 -1.225e-05 -1.08337e-05 
-1.125e-05 -1.2e-05 -1.08289e-05 
-1.1e-05 -1.225e-05 -1.08353e-05 
-1.1e-05 -1.2e-05 -1.08307e-05 
-1.075e-05 -1.225e-05 -1.08408e-05 
-1.075e-05 -1.2e-05 -1.08297e-05 
-1.05e-05 -1.225e-05 -1.08277e-05 
-1.05e-05 -1.2e-05 -1.0827e-05 
-1.025e-05 -1.225e-05 -1.08296e-05 
-1.025e-05 -1.2e-05 -1.08317e-05 
-1e-05 -1.225e-05 -1.08265e-05 
-1e-05 -1.2e-05 -1.08263e-05 
-9.75e-06 -1.225e-05 -1.08155e-05 
-9.75e-06 -1.2e-05 -1.08215e-05 
-9.5e-06 -1.225e-05 -1.0821e-05 
-9.5e-06 -1.2e-05 -1.08195e-05 
-9.25e-06 -1.225e-05 -1.08237e-05 
-9.25e-06 -1.2e-05 -1.08227e-05 
-9e-06 -1.225e-05 -1.08226e-05 
-9e-06 -1.2e-05 -1.08314e-05 
-8.75e-06 -1.225e-05 -1.0822e-05 
-8.75e-06 -1.2e-05 -1.08333e-05 
-8.5e-06 -1.225e-05 -1.08318e-05 
-8.5e-06 -1.2e-05 -1.08338e-05 
-8.25e-06 -1.225e-05 -1.08316e-05 
-8.25e-06 -1.2e-05 -1.08263e-05 
-8e-06 -1.225e-05 -1.08297e-05 
-8e-06 -1.2e-05 -1.08332e-05 
-7.75e-06 -1.225e-05 -1.08398e-05 
-7.75e-06 -1.2e-05 -1.08346e-05 
-7.5e-06 -1.225e-05 -1.08219e-05 
-7.5e-06 -1.2e-05 -1.08254e-05 
-7.25e-06 -1.225e-05 -1.08172e-05 
-7.25e-06 -1.2e-05 -1.08272e-05 
-7e-06 -1.225e-05 -1.08291e-05 
-7e-06 -1.2e-05 -1.08372e-05 
-6.75e-06 -1.225e-05 -1.08221e-05 
-6.75e-06 -1.2e-05 -1.08296e-05 
-6.5e-06 -1.225e-05 -1.08197e-05 
-6.5e-06 -1.2e-05 -1.08255e-05 
-6.25e-06 -1.225e-05 -1.08227e-05 
-6.25e-06 -1.2e-05 -1.08346e-05 
-6e-06 -1.225e-05 -1.08194e-05 
-6e-06 -1.2e-05 -1.08276e-05 
-5.75e-06 -1.225e-05 -1.08268e-05 
-5.75e-06 -1.2e-05 -1.0829e-05 
-5.5e-06 -1.225e-05 -1.08427e-05 
-5.5e-06 -1.2e-05 -1.08365e-05 
-5.25e-06 -1.225e-05 -1.0829e-05 
-5.25e-06 -1.2e-05 -1.08429e-05 
-5e-06 -1.225e-05 -1.08277e-05 
-5e-06 -1.2e-05 -1.08313e-05 
-4.75e-06 -1.225e-05 -1.0834e-05 
-4.75e-06 -1.2e-05 -1.08306e-05 
-4.5e-06 -1.225e-05 -1.08444e-05 
-4.5e-06 -1.2e-05 -1.08347e-05 
-4.25e-06 -1.225e-05 -1.08346e-05 
-4.25e-06 -1.2e-05 -1.0824e-05 
-4e-06 -1.225e-05 -1.08326e-05 
-4e-06 -1.2e-05 -1.0829e-05 
-3.75e-06 -1.225e-05 -1.08242e-05 
-3.75e-06 -1.2e-05 -1.08228e-05 
-3.5e-06 -1.225e-05 -1.08184e-05 
-3.5e-06 -1.2e-05 -1.08248e-05 
-3.25e-06 -1.225e-05 -1.08201e-05 
-3.25e-06 -1.2e-05 -1.08395e-05 
-3e-06 -1.225e-05 -1.08309e-05 
-3e-06 -1.2e-05 -1.0834e-05 
-2.75e-06 -1.225e-05 -1.08404e-05 
-2.75e-06 -1.2e-05 -1.08284e-05 
-2.5e-06 -1.225e-05 -1.08252e-05 
-2.5e-06 -1.2e-05 -1.08356e-05 
-2.25e-06 -1.225e-05 -1.08299e-05 
-2.25e-06 -1.2e-05 -1.08337e-05 
-2e-06 -1.225e-05 -1.08382e-05 
-2e-06 -1.2e-05 -1.08344e-05 
-1.75e-06 -1.225e-05 -1.08313e-05 
-1.75e-06 -1.2e-05 -1.08317e-05 
-1.5e-06 -1.225e-05 -1.08272e-05 
-1.5e-06 -1.2e-05 -1.08351e-05 
-1.25e-06 -1.225e-05 -1.08271e-05 
-1.25e-06 -1.2e-05 -1.08356e-05 
-1e-06 -1.225e-05 -1.08357e-05 
-1e-06 -1.2e-05 -1.0831e-05 
-7.5e-07 -1.225e-05 -1.08284e-05 
-7.5e-07 -1.2e-05 -1.08288e-05 
-5e-07 -1.225e-05 -1.08364e-05 
-5e-07 -1.2e-05 -1.0833e-05 
-2.5e-07 -1.225e-05 -1.08272e-05 
-2.5e-07 -1.2e-05 -1.08417e-05 
0 -1.225e-05 -1.08262e-05 
0 -1.2e-05 -1.08301e-05 
2.5e-07 -1.225e-05 -1.08215e-05 
2.5e-07 -1.2e-05 -1.08259e-05 
5e-07 -1.225e-05 -1.08261e-05 
5e-07 -1.2e-05 -1.0821e-05 
7.5e-07 -1.225e-05 -1.08292e-05 
7.5e-07 -1.2e-05 -1.08197e-05 
1e-06 -1.225e-05 -1.08265e-05 
1e-06 -1.2e-05 -1.08242e-05 
1.25e-06 -1.225e-05 -1.08291e-05 
1.25e-06 -1.2e-05 -1.0835e-05 
1.5e-06 -1.225e-05 -1.08385e-05 
1.5e-06 -1.2e-05 -1.08322e-05 
1.75e-06 -1.225e-05 -1.08235e-05 
1.75e-06 -1.2e-05 -1.08312e-05 
2e-06 -1.225e-05 -1.08341e-05 
2e-06 -1.2e-05 -1.08377e-05 
2.25e-06 -1.225e-05 -1.08356e-05 
2.25e-06 -1.2e-05 -1.08323e-05 
2.5e-06 -1.225e-05 -1.08311e-05 
2.5e-06 -1.2e-05 -1.08294e-05 
2.75e-06 -1.225e-05 -1.08195e-05 
2.75e-06 -1.2e-05 -1.08272e-05 
3e-06 -1.225e-05 -1.08247e-05 
3e-06 -1.2e-05 -1.08244e-05 
3.25e-06 -1.225e-05 -1.08256e-05 
3.25e-06 -1.2e-05 -1.08224e-05 
3.5e-06 -1.225e-05 -1.08274e-05 
3.5e-06 -1.2e-05 -1.08292e-05 
3.75e-06 -1.225e-05 -1.08396e-05 
3.75e-06 -1.2e-05 -1.08287e-05 
4e-06 -1.225e-05 -1.08261e-05 
4e-06 -1.2e-05 -1.08266e-05 
4.25e-06 -1.225e-05 -1.08202e-05 
4.25e-06 -1.2e-05 -1.08342e-05 
4.5e-06 -1.225e-05 -1.0819e-05 
4.5e-06 -1.2e-05 -1.08234e-05 
4.75e-06 -1.225e-05 -1.08332e-05 
4.75e-06 -1.2e-05 -1.08253e-05 
5e-06 -1.225e-05 -1.08323e-05 
5e-06 -1.2e-05 -1.08297e-05 
5.25e-06 -1.225e-05 -1.08401e-05 
5.25e-06 -1.2e-05 -1.08286e-05 
5.5e-06 -1.225e-05 -1.08329e-05 
5.5e-06 -1.2e-05 -1.08359e-05 
5.75e-06 -1.225e-05 -1.08218e-05 
5.75e-06 -1.2e-05 -1.08253e-05 
6e-06 -1.225e-05 -1.08275e-05 
6e-06 -1.2e-05 -1.08209e-05 
6.25e-06 -1.225e-05 -1.08358e-05 
6.25e-06 -1.2e-05 -1.08279e-05 
6.5e-06 -1.225e-05 -1.08366e-05 
6.5e-06 -1.2e-05 -1.08357e-05 
6.75e-06 -1.225e-05 -1.08234e-05 
6.75e-06 -1.2e-05 -1.08403e-05 
7e-06 -1.225e-05 -1.08244e-05 
7e-06 -1.2e-05 -1.08311e-05 
7.25e-06 -1.225e-05 -1.08274e-05 
7.25e-06 -1.2e-05 -1.08319e-05 
7.5e-06 -1.225e-05 -1.08287e-05 
7.5e-06 -1.2e-05 -1.08312e-05 
7.75e-06 -1.225e-05 -1.08364e-05 
7.75e-06 -1.2e-05 -1.0826e-05 
8e-06 -1.225e-05 -1.08286e-05 
8e-06 -1.2e-05 -1.08193e-05 
8.25e-06 -1.225e-05 -1.08326e-05 
8.25e-06 -1.2e-05 -1.08296e-05 
8.5e-06 -1.225e-05 -1.08333e-05 
8.5e-06 -1.2e-05 -1.08182e-05 
8.75e-06 -1.225e-05 -1.08328e-05 
8.75e-06 -1.2e-05 -1.08237e-05 
9e-06 -1.225e-05 -1.08421e-05 
9e-06 -1.2e-05 -1.08316e-05 
9.25e-06 -1.225e-05 -1.08288e-05 
9.25e-06 -1.2e-05 -1.08327e-05 
9.5e-06 -1.225e-05 -1.08312e-05 
9.5e-06 -1.2e-05 -1.08239e-05 
9.75e-06 -1.225e-05 -1.08392e-05 
9.75e-06 -1.2e-05 -1.08307e-05 
1e-05 -1.225e-05 -1.08238e-05 
1e-05 -1.2e-05 -1.08184e-05 
1.025e-05 -1.225e-05 -1.08298e-05 
1.025e-05 -1.2e-05 -1.08263e-05 
1.05e-05 -1.225e-05 -1.08299e-05 
1.05e-05 -1.2e-05 -1.08138e-05 
1.075e-05 -1.225e-05 -1.08287e-05 
1.075e-05 -1.2e-05 -1.08218e-05 
1.1e-05 -1.225e-05 -1.08273e-05 
1.1e-05 -1.2e-05 -1.08338e-05 
1.125e-05 -1.225e-05 -1.08245e-05 
1.125e-05 -1.2e-05 -1.08276e-05 
1.15e-05 -1.225e-05 -1.08441e-05 
1.15e-05 -1.2e-05 -1.08332e-05 
1.175e-05 -1.225e-05 -1.0838e-05 
1.175e-05 -1.2e-05 -1.08322e-05 
1.2e-05 -1.225e-05 -1.08213e-05 
1.2e-05 -1.2e-05 -1.08186e-05 
1.225e-05 -1.225e-05 -1.08172e-05 
1.225e-05 -1.2e-05 -1.08158e-05 
-1.2e-05 -1.175e-05 -1.08274e-05 
-1.225e-05 -1.175e-05 -1.08203e-05 
-1.175e-05 -1.175e-05 -1.08204e-05 
-1.15e-05 -1.175e-05 -1.08203e-05 
-1.125e-05 -1.175e-05 -1.08211e-05 
-1.1e-05 -1.175e-05 -1.08237e-05 
-1.075e-05 -1.175e-05 -1.08199e-05 
-1.05e-05 -1.175e-05 -1.0828e-05 
-1.025e-05 -1.175e-05 -1.08219e-05 
-1e-05 -1.175e-05 -1.08281e-05 
-9.75e-06 -1.175e-05 -1.08323e-05 
-9.5e-06 -1.175e-05 -1.08265e-05 
-9.25e-06 -1.175e-05 -1.08266e-05 
-9e-06 -1.175e-05 -1.08303e-05 
-8.75e-06 -1.175e-05 -1.08245e-05 
-8.5e-06 -1.175e-05 -1.08253e-05 
-8.25e-06 -1.175e-05 -1.08242e-05 
-8e-06 -1.175e-05 -1.0832e-05 
-7.75e-06 -1.175e-05 -1.08338e-05 
-7.5e-06 -1.175e-05 -1.08348e-05 
-7.25e-06 -1.175e-05 -1.08436e-05 
-7e-06 -1.175e-05 -1.08292e-05 
-6.75e-06 -1.175e-05 -1.08277e-05 
-6.5e-06 -1.175e-05 -1.0825e-05 
-6.25e-06 -1.175e-05 -1.08482e-05 
-6e-06 -1.175e-05 -1.08253e-05 
-5.75e-06 -1.175e-05 -1.08232e-05 
-5.5e-06 -1.175e-05 -1.08267e-05 
-5.25e-06 -1.175e-05 -1.08355e-05 
-5e-06 -1.175e-05 -1.0822e-05 
-4.75e-06 -1.175e-05 -1.08411e-05 
-4.5e-06 -1.175e-05 -1.08237e-05 
-4.25e-06 -1.175e-05 -1.08256e-05 
-4e-06 -1.175e-05 -1.08255e-05 
-3.75e-06 -1.175e-05 -1.08251e-05 
-3.5e-06 -1.175e-05 -1.08281e-05 
-3.25e-06 -1.175e-05 -1.08388e-05 
-3e-06 -1.175e-05 -1.08286e-05 
-2.75e-06 -1.175e-05 -1.08184e-05 
-2.5e-06 -1.175e-05 -1.08188e-05 
-2.25e-06 -1.175e-05 -1.08236e-05 
-2e-06 -1.175e-05 -1.08369e-05 
-1.75e-06 -1.175e-05 -1.08302e-05 
-1.5e-06 -1.175e-05 -1.08217e-05 
-1.25e-06 -1.175e-05 -1.08353e-05 
-1e-06 -1.175e-05 -1.08256e-05 
-7.5e-07 -1.175e-05 -1.08198e-05 
-5e-07 -1.175e-05 -1.08236e-05 
-2.5e-07 -1.175e-05 -1.0839e-05 
0 -1.175e-05 -1.08365e-05 
2.5e-07 -1.175e-05 -1.08401e-05 
5e-07 -1.175e-05 -1.08205e-05 
7.5e-07 -1.175e-05 -1.0825e-05 
1e-06 -1.175e-05 -1.08365e-05 
1.25e-06 -1.175e-05 -1.08222e-05 
1.5e-06 -1.175e-05 -1.08259e-05 
1.75e-06 -1.175e-05 -1.08324e-05 
2e-06 -1.175e-05 -1.08316e-05 
2.25e-06 -1.175e-05 -1.0826e-05 
2.5e-06 -1.175e-05 -1.08283e-05 
2.75e-06 -1.175e-05 -1.0829e-05 
3e-06 -1.175e-05 -1.08229e-05 
3.25e-06 -1.175e-05 -1.08336e-05 
3.5e-06 -1.175e-05 -1.08389e-05 
3.75e-06 -1.175e-05 -1.08256e-05 
4e-06 -1.175e-05 -1.08217e-05 
4.25e-06 -1.175e-05 -1.08323e-05 
4.5e-06 -1.175e-05 -1.08262e-05 
4.75e-06 -1.175e-05 -1.08323e-05 
5e-06 -1.175e-05 -1.08385e-05 
5.25e-06 -1.175e-05 -1.08319e-05 
5.5e-06 -1.175e-05 -1.08226e-05 
5.75e-06 -1.175e-05 -1.08285e-05 
6e-06 -1.175e-05 -1.08336e-05 
6.25e-06 -1.175e-05 -1.0836e-05 
6.5e-06 -1.175e-05 -1.08309e-05 
6.75e-06 -1.175e-05 -1.08402e-05 
7e-06 -1.175e-05 -1.08269e-05 
7.25e-06 -1.175e-05 -1.08299e-05 
7.5e-06 -1.175e-05 -1.08462e-05 
7.75e-06 -1.175e-05 -1.08372e-05 
8e-06 -1.175e-05 -1.0838e-05 
8.25e-06 -1.175e-05 -1.08303e-05 
8.5e-06 -1.175e-05 -1.0826e-05 
8.75e-06 -1.175e-05 -1.08286e-05 
9e-06 -1.175e-05 -1.08326e-05 
9.25e-06 -1.175e-05 -1.08286e-05 
9.5e-06 -1.175e-05 -1.08238e-05 
9.75e-06 -1.175e-05 -1.08378e-05 
1e-05 -1.175e-05 -1.08249e-05 
1.025e-05 -1.175e-05 -1.08291e-05 
1.05e-05 -1.175e-05 -1.08199e-05 
1.075e-05 -1.175e-05 -1.08326e-05 
1.1e-05 -1.175e-05 -1.08341e-05 
1.125e-05 -1.175e-05 -1.08303e-05 
1.15e-05 -1.175e-05 -1.08288e-05 
1.175e-05 -1.175e-05 -1.08278e-05 
1.2e-05 -1.175e-05 -1.08232e-05 
1.225e-05 -1.175e-05 -1.08203e-05 
-1.2e-05 -1.15e-05 -1.08366e-05 
-1.225e-05 -1.15e-05 -1.08288e-05 
-1.175e-05 -1.15e-05 -1.08291e-05 
-1.15e-05 -1.15e-05 -1.08258e-05 
[...]
POINT_DATA 15617
SCALARS Velocities float 1
LOOKUP_TABLE default
-3.57311e-06
-3.32112e-06
-3.59699e-06
-3.42175e-06
-3.55892e-06
-3.18967e-06
-3.56937e-06
-3.41015e-06
-3.35521e-06
-3.38616e-06
-3.39835e-06
-3.46901e-06
-3.3737e-06
-3.39797e-06
-3.45478e-06
-3.48244e-06
-3.41601e-06
-3.38218e-06
-3.43783e-06
-3.35499e-06
-3.68852e-06
-3.48151e-06
-3.45505e-06
-3.58638e-06
-3.21275e-06
-3.4397e-06
-3.42339e-06
-3.41728e-06
-3.49169e-06
-3.40582e-06
-3.28421e-06
-3.26447e-06
-3.58565e-06
-3.40126e-06
-3.39743e-06
-3.39634e-06
-3.45978e-06
-3.31981e-06
-3.47524e-06
-3.48023e-06
-3.38091e-06
-3.36769e-06
-3.55686e-06
-3.60156e-06
-3.49868e-06
-3.53675e-06
-3.43092e-06
-3.33888e-06
-3.37385e-06
-3.45227e-06
-3.53367e-06
-3.62409e-06
-3.26486e-06
-3.47684e-06
-3.28853e-06
-3.33513e-06
-3.44597e-06
-3.44282e-06
-3.32687e-06
-3.50464e-06
-3.49079e-06
-3.30744e-06
-3.44281e-06
-3.38937e-06
-3.32283e-06
-3.32473e-06
-3.46543e-06
-3.59683e-06
-3.48237e-06
-3.52421e-06
-3.32971e-06
-3.44926e-06
-3.32567e-06
-3.26558e-06
-3.2905e-06
-3.56592e-06
-3.2386e-06
-3.36261e-06
-3.32585e-06
-3.45005e-06
-3.31419e-06
-3.42159e-06
-3.44221e-06
-3.62119e-06
-3.51154e-06
-3.37628e-06
-3.55367e-06
-3.30634e-06
-3.5263e-06
-3.1905e-06
-3.50951e-06
-3.44518e-06
-3.57868e-06
-3.46965e-06
-3.57732e-06
-3.56897e-06
-3.55151e-06
-3.53736e-06
-3.52331e-06
-3.66572e-06
-3.54497e-06
-3.49921e-06
-3.36153e-06
-3.43545e-06
-3.48043e-06
-3.28819e-06
-3.41542e-06
-3.54568e-06
-3.53327e-06
-3.50152e-06
-3.39899e-06
-3.51148e-06
-3.15538e-06
-3.45158e-06
-3.34598e-06
-3.62189e-06
-3.55561e-06
-3.76791e-06
-3.56199e-06
-3.46937e-06
-3.66707e-06
-3.33467e-06
-3.50581e-06
-3.37594e-06
-3.4629e-06
-3.19636e-06
-3.46516e-06
-3.33207e-06
-3.34455e-06
-3.4277e-06
-3.45739e-06
-3.41277e-06
-3.37291e-06
-3.61413e-06
-3.47963e-06
-3.45437e-06
-3.38035e-06
-3.6847e-06
-3.21143e-06
-3.61617e-06
-3.41937e-06
-3.60241e-06
-3.43808e-06
-3.7041e-06
-3.38629e-06
-3.5745e-06
-3.50834e-06
-3.42287e-06
-3.62518e-06
-3.36047e-06
-3.3707e-06
-3.28859e-06
-3.07857e-06
-3.36977e-06
-3.34672e-06
-3.32321e-06
-3.43958e-06
-3.39242e-06
-3.48253e-06
-3.44647e-06
-3.47515e-06
-3.38906e-06
-3.34964e-06
-3.44334e-06
-3.48963e-06
-3.39607e-06
-3.37581e-06
-3.32374e-06
-3.44651e-06
-3.35081e-06
-3.50863e-06
-3.26891e-06
-3.48359e-06
-3.3586e-06
-3.53635e-06
-3.58847e-06
-3.61313e-06
-3.45698e-06
-3.49134e-06
-3.4249e-06
-3.43819e-06
-3.33269e-06
-3.47772e-06
-3.46141e-06
-3.60582e-06
-3.5966e-06
-3.51832e-06
-3.52087e-06
-3.38809e-06
-3.39259e-06
-3.57066e-06
-3.22946e-06
-3.64773e-06
-3.47384e-06
-3.50831e-06
-3.46636e-06
-3.59699e-06
-3.42175e-06
-3.69935e-06
-3.64147e-06
-3.57731e-06
-3.45313e-06
-3.45216e-06
-3.59721e-06
-3.40847e-06
-3.32424e-06
-3.22264e-06
-3.42418e-06
-3.37552e-06
-3.60394e-06
-3.57157e-06
-3.3069e-06
-3.59341e-06
-3.45279e-06
-3.56566e-06
-3.38048e-06
-3.48447e-06
-3.38557e-06
-3.48097e-06
-3.53962e-06
-3.38329e-06
-3.39559e-06
-3.5119e-06
-3.58532e-06
-3.55395e-06
-3.37008e-06
-3.25148e-06
-3.54565e-06
-3.59405e-06
-3.39943e-06
-3.25711e-06
-3.50056e-06
-3.70699e-06
-3.55279e-06
-3.3822e-06
-3.54202e-06
-3.36286e-06
-3.38443e-06
-3.54021e-06
-3.49606e-06
-3.18947e-06
-3.12898e-06
-3.33108e-06
-3.50558e-06
-3.48725e-06
-3.58569e-06
-3.57494e-06
-3.71735e-06
-3.50433e-06
-3.36566e-06
-3.27767e-06
-3.17603e-06
-3.35565e-06
-3.53941e-06
-3.67941e-06
-3.40164e-06
-3.65259e-06
-3.67361e-06
-3.34979e-06
-3.51736e-06
-3.45922e-06
-3.48344e-06
-3.35775e-06
-3.41788e-06
-3.53366e-06
-3.35045e-06
-3.54546e-06
-3.39669e-06
-3.47237e-06
-3.3884e-06
-3.42092e-06
-3.44616e-06
-3.42093e-06
-3.47335e-06
-3.56926e-06
-3.50006e-06
-3.57695e-06
-3.48632e-06
-3.62948e-06
-3.4108e-06
-3.25639e-06
-3.48106e-06
-3.33024e-06
-3.36539e-06
-3.44912e-06
-3.23485e-06
-3.30263e-06
-3.50599e-06
-3.48591e-06
-3.47826e-06
-3.65673e-06
-3.51207e-06
-3.39478e-06
-3.21332e-06
-3.32972e-06
-3.53706e-06
-3.64147e-06
-3.66152e-06
-3.55832e-06
-3.50908e-06
-3.43647e-06
-3.56621e-06
-3.63825e-06
-3.51906e-06
-3.44622e-06
-3.33005e-06
-3.47201e-06
-3.56108e-06
-3.65372e-06
-3.65342e-06
-3.23736e-06
-3.3482e-06
-3.39229e-06
-3.39637e-06
-3.40661e-06
-3.74755e-06
-3.26878e-06
-3.30093e-06
-3.27671e-06
-3.43679e-06
-3.51055e-06
-3.35414e-06
-3.3387e-06
-3.36496e-06
-3.28316e-06
-3.4565e-06
-3.60635e-06
-3.60485e-06
-3.31051e-06
-3.2519e-06
-3.38892e-06
-3.53875e-06
-3.53302e-06
-3.42245e-06
-3.54777e-06
-3.3787e-06
-3.24133e-06
-3.4381e-06
-3.24191e-06
-3.41318e-06
-3.47282e-06
-3.37374e-06
-3.49799e-06
-3.52161e-06
-3.38884e-06
-3.24318e-06
-3.47676e-06
-3.36161e-06
-3.60153e-06
-3.56531e-06
-3.44518e-06
-3.42891e-06
-3.45309e-06
-3.76986e-06
-3.49267e-06
-3.51021e-06
-3.56152e-06
-3.34649e-06
-3.50742e-06
-3.34753e-06
-3.45865e-06
-3.4157e-06
-3.51922e-06
-3.58824e-06
-3.40635e-06
-3.51529e-06
-3.41269e-06
-3.69252e-06
-3.73079e-06
-3.41605e-06
-3.4027e-06
-3.35335e-06
-3.61813e-06
-3.41426e-06
-3.68469e-06
-3.5307e-06
-3.3747e-06
-3.53328e-06
-3.50988e-06
-3.26695e-06
-3.4027e-06
-3.57004e-06
-3.53028e-06
-3.49653e-06
-3.16351e-06
-3.4194e-06
-3.39209e-06
-3.28789e-06
-3.27735e-06
-3.614e-06
-3.3505e-06
-3.40795e-06
-3.32206e-06
-3.41774e-06
-3.58086e-06
-3.55832e-06
-3.59329e-06
-3.48287e-06
-3.49948e-06
-3.27163e-06
-3.34029e-06
-3.45557e-06
-3.39834e-06
-3.39763e-06
-3.36138e-06
-3.42956e-06
-3.54265e-06
-3.39643e-06
-3.54252e-06
-3.38525e-06
-3.19118e-06
-3.38001e-06
-3.40517e-06
-3.33204e-06
-3.48111e-06
-3.33349e-06
-3.24897e-06
-3.25204e-06
-3.37867e-06
-3.54175e-06
-3.49128e-06
-3.64756e-06
-3.40772e-06
-3.4692e-06
-3.41944e-06
-3.50922e-06
-3.5456e-06
-3.27623e-06
-3.47709e-06
-3.46318e-06
-3.38473e-06
-3.35542e-06
-3.38463e-06
-3.39419e-06
-3.21775e-06
-3.4212e-06
-3.45807e-06
-3.30357e-06
-3.66029e-06
-3.5437e-06
-3.42027e-06
-3.40681e-06
-3.23979e-06
-3.10386e-06
-3.37991e-06
-3.58563e-06
-3.49692e-06
-3.4371e-06
-3.50648e-06
-3.27159e-06
-3.24805e-06
-3.35561e-06
-3.55728e-06
-3.23551e-06
-3.37525e-06
-3.54463e-06
-3.3218e-06
-3.62627e-06
-3.45587e-06
-3.38343e-06
-3.58387e-06
-3.40842e-06
-3.43698e-06
-3.58752e-06
-3.65351e-06
-3.34986e-06
-3.55897e-06
-3.46047e-06
-3.40078e-06
-3.37716e-06
-3.44779e-06
-3.44065e-06
-3.61292e-06
-3.55002e-06
-3.2833e-06
-3.56681e-06
-3.47768e-06
-3.37294e-06
-3.47087e-06
-3.40149e-06
-3.46169e-06
-3.35096e-06
-3.44005e-06
-3.67691e-06
-3.60575e-06
-3.34941e-06
-3.41188e-06
-3.57968e-06
-3.50609e-06
-3.25955e-06
-3.47007e-06
-3.47109e-06
-3.46532e-06
-3.39871e-06
-3.48287e-06
-3.39471e-06
-3.48147e-06
-3.46198e-06
-3.32947e-06
-3.29758e-06
-3.47749e-06
-3.49724e-06
-3.44879e-06
-3.61868e-06
-3.52383e-06
-3.47851e-06
-3.55382e-06
-3.56002e-06
-3.27871e-06
-3.31354e-06
-3.51632e-06
-3.34273e-06
-3.45133e-06
-3.50037e-06
-3.55911e-06
-3.332e-06
-3.30837e-06
-3.47006e-06
-3.51848e-06
-3.40517e-06
-3.47761e-06
-3.49353e-06
-3.45176e-06
-3.2283e-06
-3.34323e-06
-3.28711e-06
-3.31385e-06
-3.43515e-06
-3.39882e-06
-3.54688e-06
-3.44794e-06
-3.46288e-06
-3.44779e-06
-3.54421e-06
-3.36119e-06
-3.5153e-06
-3.38225e-06
-3.3936e-06
-3.15741e-06
-3.53947e-06
-3.43588e-06
-3.25795e-06
-3.25315e-06
-3.63509e-06
-3.52089e-06
-3.64888e-06
-3.37696e-06
-3.61186e-06
-3.28514e-06
-3.17053e-06
-3.41206e-06
-3.32142e-06
-3.41554e-06
-3.61802e-06
-3.65313e-06
-3.44317e-06
-3.29886e-06
-3.38847e-06
-3.52776e-06
-3.58308e-06
-3.55953e-06
-3.71836e-06
-3.66894e-06
-3.47653e-06
-3.30484e-06
-3.65307e-06
-3.50892e-06
-3.48025e-06
-3.52747e-06
-3.26541e-06
-3.10332e-06
-3.37907e-06
-3.36781e-06
-3.32122e-06
-3.25216e-06
-3.20342e-06
-3.40239e-06
-3.31858e-06
-3.59313e-06
-3.4822e-06
-3.42202e-06
-3.42704e-06
-3.45227e-06
-3.46323e-06
-3.44363e-06
-3.22525e-06
-3.54008e-06
-3.35268e-06
-3.56027e-06
-3.37397e-06
-3.57365e-06
-3.3849e-06
-3.54497e-06
-3.48147e-06
-3.2986e-06
-3.49827e-06
-3.46509e-06
-3.41674e-06
-3.41665e-06
-3.62873e-06
-3.57023e-06
-3.44748e-06
-3.5796e-06
-3.44042e-06
-3.59476e-06
-3.45885e-06
-3.35933e-06
-3.34746e-06
-3.29737e-06
-3.51741e-06
-3.51901e-06
-3.4728e-06
-3.54691e-06
-3.52124e-06
-3.49179e-06
-3.30143e-06
-3.33681e-06
-3.39515e-06
-3.40647e-06
-3.59715e-06
-3.42138e-06
-3.3361e-06
-3.18706e-06
-3.29346e-06
-3.36854e-06
-3.34023e-06
-3.3508e-06
-3.36427e-06
-3.34405e-06
-3.34982e-06
-3.43518e-06
-3.26005e-06
-3.11423e-06
-3.19766e-06
-3.53031e-06
-3.37904e-06
-3.38897e-06
-3.42168e-06
-3.34962e-06
-3.53921e-06
-3.32703e-06
-3.42111e-06
-3.4951e-06
-3.35911e-06
-3.32443e-06
-3.43965e-06
-3.48696e-06
-3.38197e-06
-3.3251e-06
-3.24778e-06
-3.35931e-06
-3.47753e-06
-3.50442e-06
-3.58219e-06
-3.63554e-06
-3.442e-06
-3.44674e-06
-3.52705e-06
-3.52915e-06
-3.64178e-06
-3.55457e-06
-3.44318e-06
-3.27448e-06
-3.2254e-06
-3.27679e-06
-3.55078e-06
-3.5436e-06
-3.58688e-06
-3.39374e-06
-3.42829e-06
-3.56492e-06
-3.56037e-06
-3.38201e-06
-3.40269e-06
-3.32015e-06
-3.49296e-06
-3.36394e-06
-3.4607e-06
-3.56497e-06
-3.27287e-06
-3.35776e-06
-3.46152e-06
-3.37666e-06
-3.47046e-06
-3.50348e-06
-3.52066e-06
-3.45034e-06
-3.40017e-06
-3.30049e-06
-3.4953e-06
-3.3501e-06
-3.36659e-06
-3.49827e-06
-3.41658e-06
-3.46254e-06
-3.36805e-06
-3.23315e-06
-3.22335e-06
-3.47767e-06
-3.42109e-06
-3.35288e-06
-3.69681e-06
-3.37976e-06
-3.45627e-06
-3.30653e-06
-3.26972e-06
-3.43788e-06
-3.39905e-06
-3.5811e-06
-3.78837e-06
-3.579e-06
-3.34158e-06
-3.24559e-06
-3.37317e-06
-3.5442e-06
-3.50339e-06
-3.52591e-06
-3.48658e-06
-3.48192e-06
-3.34263e-06
-3.43049e-06
-3.3884e-06
-3.56007e-06
-3.59628e-06
-3.35417e-06
-3.39517e-06
-3.44109e-06
-3.18164e-06
-3.43029e-06
-3.37451e-06
-3.46326e-06
-3.27675e-06
-3.34821e-06
-3.22406e-06
-3.50748e-06
-3.2838e-06
-3.36609e-06
-3.22994e-06
-3.5215e-06
-3.70629e-06
-3.53474e-06
-3.44795e-06
-3.46269e-06
-3.24981e-06
-3.42778e-06
-3.38528e-06
-3.471e-06
-3.52848e-06
-3.62615e-06
-3.60336e-06
-3.53461e-06
-3.38563e-06
-3.51497e-06
-3.40747e-06
-3.52475e-06
-3.68039e-06
-3.31713e-06
-3.33766e-06
-3.39407e-06
-3.46809e-06
-3.52304e-06
-3.40872e-06
-3.3871e-06
-3.18204e-06
-3.38649e-06
-3.26213e-06
-3.48649e-06
-3.27432e-06
-3.34791e-06
-3.23427e-06
-3.49388e-06
-3.56622e-06
-3.54751e-06
-3.44549e-06
-3.65903e-06
-3.5562e-06
-3.17765e-06
-3.35506e-06
-3.5379e-06
-3.47939e-06
-3.44757e-06
-3.38186e-06
-3.46445e-06
-3.5517e-06
-3.51253e-06
-3.49406e-06
-3.36212e-06
-3.5579e-06
-3.57657e-06
-3.48733e-06
-3.4056e-06
-3.46254e-06
-3.26725e-06
-3.3417e-06
-3.43169e-06
-3.52398e-06
-3.49584e-06
-3.31966e-06
-3.36541e-06
-3.21787e-06
-3.49427e-06
-3.48199e-06
-3.54704e-06
-3.51573e-06
-3.51901e-06
-3.45444e-06
-3.37412e-06
-3.34463e-06
-3.50065e-06
-3.37067e-06
-3.56508e-06
-3.40107e-06
-3.50681e-06
-3.39735e-06
-3.42084e-06
-3.45867e-06
-3.49806e-06
-3.32815e-06
-3.3293e-06
-3.38573e-06
-3.36977e-06
-3.73829e-06
-3.59273e-06
-3.42184e-06
-3.35188e-06
-3.53591e-06
-3.55484e-06
-3.35536e-06
-3.4526e-06
-3.56283e-06
-3.31875e-06
-3.30882e-06
-3.09766e-06
-3.50797e-06
-3.57679e-06
-3.50722e-06
-3.27534e-06
-3.41368e-06
-3.78926e-06
-3.6872e-06
-3.54519e-06
-3.37228e-06
-3.41905e-06
-3.49145e-06
-3.32341e-06
-3.42009e-06
-3.35358e-06
-3.50734e-06
-3.56153e-06
-3.45373e-06
-3.30993e-06
-3.60258e-06
-3.5175e-06
-3.81892e-06
-3.59864e-06
-3.49949e-06
-3.41327e-06
-3.35787e-06
-3.41292e-06
-3.71627e-06
-3.51918e-06
-3.38342e-06
-3.54679e-06
-3.54375e-06
-3.50107e-06
-3.4575e-06
-3.33343e-06
-3.3775e-06
-3.49004e-06
-3.39748e-06
-3.48616e-06
-3.60696e-06
-3.63779e-06
-3.55282e-06
-3.49707e-06
-3.40578e-06
-3.42013e-06
-3.47269e-06
-3.35005e-06
-3.56123e-06
-3.55869e-06
-3.42213e-06
-3.42998e-06
-3.3989e-06
-3.31426e-06
-3.35774e-06
-3.42958e-06
-3.55728e-06
-3.47611e-06
-3.492e-06
-3.3417e-06
-3.44154e-06
-3.49445e-06
-3.52725e-06
-3.65247e-06
-3.58062e-06
-3.50097e-06
-3.603e-06
-3.49113e-06
-3.37836e-06
-3.66245e-06
-3.47714e-06
-3.2565e-06
-3.33989e-06
-3.33735e-06
-3.39171e-06
-3.32769e-06
-3.43565e-06
-3.20611e-06
-3.36923e-06
-3.41249e-06
-3.46109e-06
-3.43331e-06
-3.39883e-06
-3.42286e-06
-3.43671e-06
-3.62907e-06
-3.57617e-06
-3.47597e-06
-3.4068e-06
-3.49229e-06
-3.46851e-06
-3.40241e-06
-3.53068e-06
-3.43427e-06
-3.50368e-06
-3.47676e-06
-3.6208e-06
-3.53429e-06
-3.39711e-06
-3.50822e-06
-3.50038e-06
-3.40768e-06
-3.45723e-06
-3.46138e-06
-3.28876e-06
-3.36352e-06
-3.39941e-06
-3.52433e-06
-3.5714e-06
-3.76149e-06
-3.56143e-06
-3.52728e-06
-3.3126e-06
-3.40895e-06
-3.41374e-06
-3.1457e-06
-3.24655e-06
-3.51383e-06
-3.23097e-06
-3.4534e-06
-3.55626e-06
-3.61689e-06
-3.55615e-06
-3.52181e-06
-3.49183e-06
-3.45667e-06
-3.26255e-06
-3.42966e-06
-3.43615e-06
-3.40559e-06
-3.49303e-06
-3.4143e-06
-3.3221e-06
-3.24458e-06
-3.39974e-06
-3.3307e-06
-3.39561e-06
-3.56218e-06
-3.56146e-06
-3.64351e-06
-3.49112e-06
-3.45457e-06
-3.58839e-06
-3.45071e-06
-3.35084e-06
-3.30881e-06
-3.38276e-06
-3.40199e-06
-3.37894e-06
-3.43193e-06
-3.50177e-06
-3.68551e-06
-3.56291e-06
-3.66075e-06
-3.4516e-06
-3.50354e-06
-3.33517e-06
-3.52528e-06
-3.49445e-06
-3.49228e-06
-3.4247e-06
-3.55184e-06
-3.56431e-06
-3.36606e-06
-3.30438e-06
-3.22383e-06
-3.48562e-06
-3.34407e-06
-3.62017e-06
-3.65263e-06
-3.62339e-06
-3.38935e-06
-3.35817e-06
-3.47053e-06
-3.32141e-06
-3.47831e-06
-3.53884e-06
-3.55293e-06
-3.47262e-06
-3.57339e-06
-3.69211e-06
-3.50978e-06
-3.30012e-06
-3.37914e-06
-3.28926e-06
-3.20611e-06
-3.31506e-06
-3.33061e-06
-3.34128e-06
-3.48019e-06
-3.45582e-06
-3.22694e-06
-3.37402e-06
-3.50567e-06
-3.44845e-06
-3.41856e-06
-3.44503e-06
-3.31338e-06
-3.15865e-06
-3.33882e-06
-3.69281e-06
-3.51066e-06
-3.42167e-06
-3.56924e-06
-3.47235e-06
-3.32141e-06
-3.41334e-06
-3.47164e-06
-3.5764e-06
-3.34399e-06
-3.49499e-06
-3.61088e-06
-3.66868e-06
-3.69287e-06
-3.23226e-06
-3.30303e-06
-3.65472e-06
-3.33417e-06
-3.5605e-06
-3.43271e-06
-3.33191e-06
-3.53698e-06
-3.56345e-06
-3.53829e-06
-3.52109e-06
-3.48593e-06
-3.52638e-06
-3.341e-06
-3.52079e-06
-3.4472e-06
-3.38851e-06
-3.44595e-06
-3.2244e-06
-3.18223e-06
-3.52279e-06
-3.6844e-06
-3.61222e-06
-3.6577e-06
-3.50608e-06
-3.45678e-06
-3.43683e-06
-3.37755e-06
-3.50157e-06
-3.25322e-06
-3.30504e-06
-3.60084e-06
-3.68574e-06
-3.65504e-06
-3.48154e-06
-3.33562e-06
-3.61229e-06
-3.55557e-06
-3.55019e-06
-3.49304e-06
-3.29504e-06
-3.24622e-06
-3.59316e-06
-3.4247e-06
-3.30061e-06
-3.30785e-06
-3.31263e-06
-3.30266e-06
-3.155e-06
-3.17709e-06
-3.31602e-06
-3.45323e-06
-3.25506e-06
-3.51901e-06
-3.53925e-06
-3.44122e-06
-3.4547e-06
-3.49913e-06
-3.59421e-06
-3.42085e-06
-3.52052e-06
-3.43057e-06
-3.41936e-06
-3.41897e-06
-3.66133e-06
-3.71671e-06
-3.48477e-06
-3.47461e-06
-3.47049e-06
-3.32241e-06
-3.32914e-06
-3.56867e-06
-3.71887e-06
-3.53365e-06
-3.40067e-06
-3.46679e-06
-3.30233e-06
-3.41974e-06
-3.47405e-06
-3.53982e-06
-3.58105e-06
-3.41424e-06
-3.28853e-06
-3.33529e-06
-3.45344e-06
-3.56943e-06
-3.61457e-06
-3.35069e-06
-3.35157e-06
-3.31261e-06
-3.65474e-06
-3.36018e-06
-3.18015e-06
-3.48841e-06
-3.45971e-06
-3.25401e-06
-3.24546e-06
-3.46121e-06
-3.48369e-06
-3.56547e-06
-3.70339e-06
-3.63929e-06
-3.23695e-06
-3.46555e-06
-3.48113e-06
-3.49758e-06
-3.5213e-06
-3.67894e-06
-3.3353e-06
-3.39341e-06
-3.50567e-06
-3.5599e-06
-3.48598e-06
-3.57071e-06
-3.44179e-06
-3.43616e-06
-3.72101e-06
-3.42379e-06
-3.44119e-06
-3.53689e-06
-3.32967e-06
-3.33459e-06
-3.5848e-06
-3.4334e-06
-3.29053e-06
-3.39539e-06
-3.63326e-06
-3.48085e-06
-3.40295e-06
-3.33361e-06
-3.57638e-06
-3.56549e-06
-3.51417e-06
-3.44629e-06
-3.38845e-06
-3.43538e-06
-3.43046e-06
-3.66979e-06
-3.51573e-06
-3.25926e-06
-3.38505e-06
-3.45666e-06
-3.30785e-06
-3.22323e-06
-3.47867e-06
-3.45591e-06
-3.55048e-06
-3.18596e-06
-3.34939e-06
-3.44354e-06
-3.48322e-06
-3.51334e-06
-3.49509e-06
-3.43709e-06
-3.43576e-06
-3.36857e-06
-3.61278e-06
-3.54222e-06
-3.38137e-06
-3.48714e-06
-3.60881e-06
-3.35634e-06
-3.59986e-06
-3.51705e-06
-3.59202e-06
-3.52963e-06
-3.5015e-06
-3.72975e-06
-3.54778e-06
-3.46616e-06
-3.4961e-06
-3.5446e-06
-3.4425e-06
-3.55361e-06
-3.451e-06
-3.53472e-06
-3.49307e-06
-3.46921e-06
-3.58143e-06
-3.535e-06
-3.55182e-06
-3.47989e-06
-3.56621e-06
-3.59175e-06
-3.29321e-06
-3.31676e-06
-3.33401e-06
-3.33256e-06
-3.51062e-06
-3.69558e-06
-3.60543e-06
-3.44233e-06
-3.60837e-06
-3.56232e-06
-3.47132e-06
-3.154e-06
-3.19462e-06
-3.29482e-06
-3.41296e-06
-3.36201e-06
-3.35461e-06
-3.24865e-06
-3.19734e-06
-3.49567e-06
-3.54238e-06
-3.53931e-06
-3.40099e-06
-3.43209e-06
-3.51932e-06
-3.44246e-06
-3.35252e-06
-3.61685e-06
-3.39689e-06
-3.258e-06
-3.24495e-06
-3.37454e-06
-3.35066e-06
-3.49875e-06
-3.63015e-06
-3.32551e-06
-3.40286e-06
-3.71637e-06
-3.52127e-06
-3.39231e-06
-3.42975e-06
-3.4434e-06
-3.49044e-06
-3.47431e-06
-3.46132e-06
-3.50898e-06
-3.51915e-06
-3.53796e-06
-3.44196e-06
-3.46056e-06
-3.47792e-06
-3.56013e-06
-3.6927e-06
-3.51339e-06
-3.50239e-06
-3.50629e-06
-3.4812e-06
-3.47867e-06
-3.35851e-06
-3.40141e-06
-3.50411e-06
-3.43963e-06
-3.38944e-06
-3.5024e-06
-3.59017e-06
-3.26843e-06
-3.40143e-06
-3.25308e-06
-3.32336e-06
-3.40181e-06
-3.33511e-06
-3.63646e-06
-3.38531e-06
-3.36548e-06
-3.53029e-06
-3.58496e-06
-3.47699e-06
-3.60498e-06
-3.5578e-06
-3.58423e-06
-3.42436e-06
-3.52597e-06
-3.51601e-06
-3.20582e-06
-3.32683e-06
-3.53044e-06
-3.44242e-06
-3.45304e-06
-3.46868e-06
-3.47178e-06
-3.45975e-06
-3.54403e-06
-3.35818e-06
-3.46339e-06
-3.31875e-06
-3.41051e-06
-3.50268e-06
-3.4686e-06
-3.4553e-06
-3.41189e-06
-3.40053e-06
-3.49335e-06
-3.3618e-06
-3.25112e-06
-3.47623e-06
-3.64634e-06
-3.66363e-06
-3.5778e-06
-3.41645e-06
-3.42421e-06
-3.42545e-06
-3.63667e-06
-3.42295e-06
-3.36599e-06
-3.3318e-06
-3.56993e-06
-3.27223e-06
-3.33263e-06
-3.57583e-06
-3.6015e-06
-3.72847e-06
-3.30301e-06
-3.5143e-06
-3.35687e-06
-3.31174e-06
-3.4131e-06
-3.46515e-06
-3.17929e-06
-3.35775e-06
-3.42256e-06
-3.35966e-06
-3.34799e-06
-3.37294e-06
-3.41517e-06
-3.49394e-06
-3.64936e-06
-3.76275e-06
-3.61365e-06
-3.55402e-06
-3.40246e-06
-3.57455e-06
-3.76095e-06
-3.5812e-06
-3.56291e-06
-3.40647e-06
-3.50992e-06
-3.16661e-06
-3.33763e-06
-3.31006e-06
-3.13695e-06
-3.47894e-06
-3.43423e-06
-3.35996e-06
-3.47129e-06
-3.52459e-06
-3.54637e-06
-3.40141e-06
-3.47266e-06
-3.17678e-06
-3.51031e-06
-3.36191e-06
-3.35301e-06
-3.34124e-06
-3.51707e-06
-3.31703e-06
-3.37635e-06
-3.22496e-06
-3.41337e-06
-3.25378e-06
-3.42061e-06
-3.56045e-06
-3.53121e-06
-3.35343e-06
-3.32464e-06
-3.53627e-06
-3.40699e-06
-3.25759e-06
-3.27508e-06
-3.36263e-06
-3.39667e-06
-3.4743e-06
-3.53266e-06
-3.28002e-06
-3.43421e-06
-3.51964e-06
-3.25061e-06
-3.57054e-06
-3.3652e-06
-3.40253e-06
-3.45228e-06
-3.49018e-06
-3.52586e-06
-3.40749e-06
-3.31054e-06
-3.37675e-06
-3.41193e-06
-3.60094e-06
-3.44133e-06
-3.49632e-06
-3.35499e-06
-3.60535e-06
-3.52138e-06
-3.36064e-06
-3.42002e-06
-3.4511e-06
-3.48951e-06
-3.38417e-06
-3.28176e-06
-3.33717e-06
-3.66632e-06
-3.60931e-06
-3.2801e-06
-3.27877e-06
-3.38996e-06
-3.45424e-06
-3.40044e-06
-3.2844e-06
-3.35178e-06
-3.47041e-06
-3.44984e-06
-3.55409e-06
-3.45875e-06
-3.23698e-06
-3.35043e-06
-3.48864e-06
-3.3872e-06
-3.25141e-06
-3.38258e-06
-3.42962e-06
-3.54199e-06
-3.34167e-06
-3.3061e-06
-3.47756e-06
-3.56534e-06
-3.44256e-06
-3.4158e-06
-3.3679e-06
-3.6224e-06
-3.44672e-06
-3.55051e-06
-3.3966e-06
-3.45209e-06
-3.50991e-06
-3.39041e-06
-3.40233e-06
-3.40331e-06
-3.39745e-06
-3.50935e-06
-3.63244e-06
-3.6051e-06
-3.43504e-06
-3.18144e-06
-3.40137e-06
-3.5425e-06
-3.39017e-06
-3.17678e-06
-3.64843e-06
-3.37602e-06
-3.51227e-06
-3.33398e-06
-3.2502e-06
-3.43356e-06
-3.60448e-06
-3.36797e-06
-3.54564e-06
-3.50879e-06
-3.50662e-06
-3.36541e-06
-3.54485e-06
-3.49541e-06
-3.54872e-06
-3.41997e-06
-3.39794e-06
-3.52845e-06
-3.35893e-06
-3.31555e-06
-3.51962e-06
-3.33641e-06
-3.17388e-06
-3.4136e-06
-3.51419e-06
-3.40763e-06
-3.38369e-06
-3.42286e-06
-3.38507e-06
-3.50187e-06
-3.50254e-06
-3.51903e-06
-3.56924e-06
-3.34398e-06
-3.36296e-06
-3.32329e-06
-3.46898e-06
-3.26209e-06
-3.41898e-06
-3.36424e-06
-3.36596e-06
-3.38192e-06
-3.55107e-06
-3.49151e-06
-3.41143e-06
-3.30409e-06
-3.2975e-06
-3.58282e-06
-3.36518e-06
-3.31869e-06
-3.26768e-06
-3.2698e-06
-3.47539e-06
-3.35842e-06
-3.38633e-06
-3.351e-06
-3.65872e-06
-3.42402e-06
-3.30679e-06
-3.5288e-06
-3.37449e-06