# vtk DataFile Version 2.0
3D Surface
ASCII
DATASET UNSTRUCTURED_GRID
POINTS 14141 float
-1.2e-05 -1.225e-05 -7.9e-06 
-1.2e-05 -1.2e-05 -7.9e-06 
-1.225e-05 -1.225e-05 -7.9e-06 
-1.225e-05 -1.2e-05 -7.9e-06 
-1.175e-05 -1.225e-05 -7.9e-06 
-1.175e-05 -1.2e-05 -7.9e-06 
-1.15e-05 -1.225e-05 -7.9e-06 
-1.15e-05 -1.2e-05 -7.9e-06 
-1.125e-05 -1.225e-05 -7.9e-06 
-1.125e-05 -1.2e-05 -7.9e-06 
-1.1e-05 -1.225e-05 -7.9e-06 
-1.1e-05 -1.2e-05 -7.9e-06 
-1.075e-05 -1.225e-05 -7.9e-06 
-1.075e-05 -1.2e-05 -7.9e-06 
-1.05e-05 -1.225e-05 -7.9e-06 
-1.05e-05 -1.2e-05 -7.9e-06 
-1.025e-05 -1.225e-05 -7.9e-06 
-1.025e-05 -1.2e-05 -7.9e-06 
-1e-05 -1.225e-05 -7.9e-06 
-1e-05 -1.2e-05 -7.9e-06 
-9.75e-06 -1.225e-05 -7.9e-06 
-9.75e-06 -1.2e-05 -7.9e-06 
-9.5e-06 -1.225e-05 -7.9e-06 
-9.5e-06 -1.2e-05 -7.9e-06 
-9.25e-06 -1.225e-05 -7.9e-06 
-9.25e-06 -1.2e-05 -7.9e-06 
-9e-06 -1.225e-05 -7.9e-06 
-9e-06 -1.2e-05 -7.9e-06 
-8.75e-06 -1.225e-05 -7.9e-06 
-8.75e-06 -1.2e-05 -7.9e-06 
-8.5e-06 -1.225e-05 -7.9e-06 
-8.5e-06 -1.2e-05 -7.9e-06 
-8.25e-06 -1.225e-05 -7.9e-06 
-8.25e-06 -1.2e-05 -7.9e-06 
-8e-06 -1.225e-05 -7.9e-06 
-8e-06 -1.2e-05 -7.9e-06 
-7.75e-06 -1.225e-05 -7.9e-06 
-7.75e-06 -1.2e-05 -7.9e-06 
-7.5e-06 -1.225e-05 -7.9e-06 
-7.5e-06 -1.2e-05 -7.9e-06 
-7.25e-06 -1.225e-05 -7.9e-06 
-7.25e-06 -1.2e-05 -7.9e-06 
-7e-06 -1.225e-05 -7.9e-06 
-7e-06 -1.2e-05 -7.9e-06 
-6.75e-06 -1.225e-05 -7.9e-06 
-6.75e-06 -1.2e-05 -7.9e-06 
-6.5e-06 -1.225e-05 -7.9e-06 
-6.5e-06 -1.2e-05 -7.9e-06 
-6.25e-06 -1.225e-05 -7.9e-06 
-6.25e-06 -1.2e-05 -7.9e-06 
-6e-06 -1.225e-05 -7.9e-06 
-6e-06 -1.2e-05 -7.9e-06 
-5.75e-06 -1.225e-05 -7.9e-06 
-5.75e-06 -1.2e-05 -7.9e-06 
-5.5e-06 -1.225e-05 -7.9e-06 
-5.5e-06 -1.2e-05 -7.9e-06 
-5.25e-06 -1.225e-05 -7.9e-06 
-5.25e-06 -1.2e-05 -7.9e-06 
-5e-06 -1.225e-05 -7.9e-06 
-5e-06 -1.2e-05 -7.9e-06 
-4.75e-06 -1.225e-05 -7.9e-06 
-4.75e-06 -1.2e-05 -7.9e-06 
-4.5e-06 -1.225e-05 -7.9e-06 
-4.5e-06 -1.2e-05 -7.9e-06 
-4.25e-06 -1.225e-05 -7.9e-06 
-4.25e-06 -1.2e-05 -7.9e-06 
-4e-06 -1.225e-05 -7.9e-06 
-4e-06 -1.2e-05 -7.9e-06 
-3.75e-06 -1.225e-05 -7.9e-06 
-3.75e-06 -1.2e-05 -7.9e-06 
-3.5e-06 -1.225e-05 -7.9e-06 
-3.5e-06 -1.2e-05 -7.9e-06 
-3.25e-06 -1.225e-05 -7.9e-06 
-3.25e-06 -1.2e-05 -7.9e-06 
-3e-06 -1.225e-05 -7.9e-06 
-3e-06 -1.2e-05 -7.9e-06 
-2.75e-06 -1.225e-05 -7.9e-06 
-2.75e-06 -1.2e-05 -7.9e-06 
-2.5e-06 -1.225e-05 -7.9e-06 
-2.5e-06 -1.2e-05 -7.9e-06 
-2.25e-06 -1.225e-05 -7.9e-06 
-2.25e-06 -1.2e-05 -7.9e-06 
-2e-06 -1.225e-05 -7.9e-06 
-2e-06 -1.2e-05 -7.9e-06 
-1.75e-06 -1.225e-05 -7.9e-06 
-1.75e-06 -1.2e-05 -7.9e-06 
-1.5e-06 -1.225e-05 -7.9e-06 
-1.5e-06 -1.2e-05 -7.9e-06 
-1.25e-06 -1.225e-05 -7.9e-06 
-1.25e-06 -1.2e-05 -7.9e-06 
-1e-06 -1.225e-05 -7.9e-06 
-1e-06 -1.2e-05 -7.9e-06 
-7.5e-07 -1.225e-05 -7.9e-06 
-7.5e-07 -1.2e-05 -7.9e-06 
-5e-07 -1.225e-05 -7.9e-06 
-5e-07 -1.2e-05 -7.9e-06 
-2.5e-07 -1.225e-05 -7.9e-06 
-2.5e-07 -1.2e-05 -7.9e-06 
0 -1.225e-05 -7.9e-06 
0 -1.2e-05 -7.9e-06 
2.5e-07 -1.225e-05 -7.9e-06 
2.5e-07 -1.2e-05 -7.9e-06 
5e-07 -1.225e-05 -7.9e-06 
5e-07 -1.2e-05 -7.9e-06 
7.5e-07 -1.225e-05 -7.9e-06 
7.5e-07 -1.2e-05 -7.9e-06 
1e-06 -1.225e-05 -7.9e-06 
1e-06 -1.2e-05 -7.9e-06 
1.25e-06 -1.225e-05 -7.9e-06 
1.25e-06 -1.2e-05 -7.9e-06 
1.5e-06 -1.225e-05 -7.9e-06 
1.5e-06 -1.2e-05 -7.9e-06 
1.75e-06 -1.225e-05 -7.9e-06 
1.75e-06 -1.2e-05 -7.9e-06 
2e-06 -1.225e-05 -7.9e-06 
2e-06 -1.2e-05 -7.9e-06 
2.25e-06 -1.225e-05 -7.9e-06 
2.25e-06 -1.2e-05 -7.9e-06 
2.5e-06 -1.225e-05 -7.9e-06 
2.5e-06 -1.2e-05 -7.9e-06 
2.75e-06 -1.225e-05 -7.9e-06 
2.75e-06 -1.2e-05 -7.9e-06 
3e-06 -1.225e-05 -7.9e-06 
3e-06 -1.2e-05 -7.9e-06 
3.25e-06 -1.225e-05 -7.9e-06 
3.25e-06 -1.2e-05 -7.9e-06 
3.5e-06 -1.225e-05 -7.9e-06 
3.5e-06 -1.2e-05 -7.9e-06 
3.75e-06 -1.225e-05 -7.9e-06 
3.75e-06 -1.2e-05 -7.9e-06 
4e-06 -1.225e-05 -7.9e-06 
4e-06 -1.2e-05 -7.9e-06 
4.25e-06 -1.225e-05 -7.9e-06 
4.25e-06 -1.2e-05 -7.9e-06 
4.5e-06 -1.225e-05 -7.9e-06 
4.5e-06 -1.2e-05 -7.9e-06 
4.75e-06 -1.225e-05 -7.9e-06 
4.75e-06 -1.2e-05 -7.9e-06 
5e-06 -1.225e-05 -7.9e-06 
5e-06 -1.2e-05 -7.9e-06 
5.25e-06 -1.225e-05 -7.9e-06 
5.25e-06 -1.2e-05 -7.9e-06 
5.5e-06 -1.225e-05 -7.9e-06 
5.5e-06 -1.2e-05 -7.9e-06 
5.75e-06 -1.225e-05 -7.9e-06 
5.75e-06 -1.2e-05 -7.9e-06 
6e-06 -1.225e-05 -7.9e-06 
6e-06 -1.2e-05 -7.9e-06 
6.25e-06 -1.225e-05 -7.9e-06 
6.25e-06 -1.2e-05 -7.9e-06 
6.5e-06 -1.225e-05 -7.9e-06 
6.5e-06 -1.2e-05 -7.9e-06 
6.75e-06 -1.225e-05 -7.9e-06 
6.75e-06 -1.2e-05 -7.9e-06 
7e-06 -1.225e-05 -7.9e-06 
7e-06 -1.2e-05 -7.9e-06 
7.25e-06 -1.225e-05 -7.9e-06 
7.25e-06 -1.2e-05 -7.9e-06 
7.5e-06 -1.225e-05 -7.9e-06 
7.5e-06 -1.2e-05 -7.9e-06 
7.75e-06 -1.225e-05 -7.9e-06 
7.75e-06 -1.2e-05 -7.9e-06 
8e-06 -1.225e-05 -7.9e-06 
8e-06 -1.2e-05 -7.9e-06 
8.25e-06 -1.225e-05 -7.9e-06 
8.25e-06 -1.2e-05 -7.9e-06 
8.5e-06 -1.225e-05 -7.9e-06 
8.5e-06 -1.2e-05 -7.9e-06 
8.75e-06 -1.225e-05 -7.9e-06 
8.75e-06 -1.2e-05 -7.9e-06 
9e-06 -1.225e-05 -7.9e-06 
9e-06 -1.2e-05 -7.9e-06 
9.25e-06 -1.225e-05 -7.9e-06 
9.25e-06 -1.2e-05 -7.9e-06 
9.5e-06 -1.225e-05 -7.9e-06 
9.5e-06 -1.2e-05 -7.9e-06 
9.75e-06 -1.225e-05 -7.9e-06 
9.75e-06 -1.2e-05 -7.9e-06 
1e-05 -1.225e-05 -7.9e-06 
1e-05 -1.2e-05 -7.9e-06 
1.025e-05 -1.225e-05 -7.9e-06 
1.025e-05 -1.2e-05 -7.9e-06 
1.05e-05 -1.225e-05 -7.9e-06 
1.05e-05 -1.2e-05 -7.9e-06 
1.075e-05 -1.225e-05 -7.9e-06 
1.075e-05 -1.2e-05 -7.9e-06 
1.1e-05 -1.225e-05 -7.9e-06 
1.1e-05 -1.2e-05 -7.9e-06 
1.125e-05 -1.225e-05 -7.9e-06 
1.125e-05 -1.2e-05 -7.9e-06 
1.15e-05 -1.225e-05 -7.9e-06 
1.15e-05 -1.2e-05 -7.9e-06 
1.175e-05 -1.225e-05 -7.9e-06 
1.175e-05 -1.2e-05 -7.9e-06 
1.2e-05 -1.225e-05 -7.9e-06 
1.2e-05 -1.2e-05 -7.9e-06 
1.225e-05 -1.225e-05 -7.9e-06 
1.225e-05 -1.2e-05 -7.9e-06 
-1.2e-05 -1.175e-05 -7.9e-06 
-1.225e-05 -1.175e-05 -7.9e-06 
-1.175e-05 -1.175e-05 -7.9e-06 
-1.15e-05 -1.175e-05 -7.9e-06 
-1.125e-05 -1.175e-05 -7.9e-06 
-1.1e-05 -1.175e-05 -7.9e-06 
-1.075e-05 -1.175e-05 -7.9e-06 
-1.05e-05 -1.175e-05 -7.9e-06 
-1.025e-05 -1.175e-05 -7.9e-06 
-1e-05 -1.175e-05 -7.9e-06 
-9.75e-06 -1.175e-05 -7.9e-06 
-9.5e-06 -1.175e-05 -7.9e-06 
-9.25e-06 -1.175e-05 -7.9e-06 
-9e-06 -1.175e-05 -7.9e-06 
-8.75e-06 -1.175e-05 -7.9e-06 
-8.5e-06 -1.175e-05 -7.9e-06 
-8.25e-06 -1.175e-05 -7.9e-06 
-8e-06 -1.175e-05 -7.9e-06 
-7.75e-06 -1.175e-05 -7.9e-06 
-7.5e-06 -1.175e-05 -7.9e-06 
-7.25e-06 -1.175e-05 -7.9e-06 
-7e-06 -1.175e-05 -7.9e-06 
-6.75e-06 -1.175e-05 -7.9e-06 
-6.5e-06 -1.175e-05 -7.9e-06 
-6.25e-06 -1.175e-05 -7.9e-06 
-6e-06 -1.175e-05 -7.9e-06 
-5.75e-06 -1.175e-05 -7.9e-06 
-5.5e-06 -1.175e-05 -7.9e-06 
-5.25e-06 -1.175e-05 -7.9e-06 
-5e-06 -1.175e-05 -7.9e-06 
-4.75e-06 -1.175e-05 -7.9e-06 
-4.5e-06 -1.175e-05 -7.9e-06 
-4.25e-06 -1.175e-05 -7.9e-06 
-4e-06 -1.175e-05 -7.9e-06 
-3.75e-06 -1.175e-05 -7.9e-06 
-3.5e-06 -1.175e-05 -7.9e-06 
-3.25e-06 -1.175e-05 -7.9e-06 
-3e-06 -1.175e-05 -7.9e-06 
-2.75e-06 -1.175e-05 -7.9e-06 
-2.5e-06 -1.175e-05 -7.9e-06 
-2.25e-06 -1.175e-05 -7.9e-06 
-2e-06 -1.175e-05 -7.9e-06 
-1.75e-06 -1.175e-05 -7.9e-06 
-1.5e-06 -1.175e-05 -7.9e-06 
-1.25e-06 -1.175e-05 -7.9e-06 
-1e-06 -1.175e-05 -7.9e-06 
-7.5e-07 -1.175e-05 -7.9e-06 
-5e-07 -1.175e-05 -7.9e-06 
-2.5e-07 -1.175e-05 -7.9e-06 
0 -1.175e-05 -7.9e-06 
2.5e-07 -1.175e-05 -7.9e-06 
5e-07 -1.175e-05 -7.9e-06 
7.5e-07 -1.175e-05 -7.9e-06 
1e-06 -1.175e-05 -7.9e-06 
1.25e-06 -1.175e-05 -7.9e-06 
1.5e-06 -1.175e-05 -7.9e-06 
1.75e-06 -1.175e-05 -7.9e-06 
2e-06 -1.175e-05 -7.9e-06 
2.25e-06 -1.175e-05 -7.9e-06 
2.5e-06 -1.175e-05 -7.9e-06 
2.75e-06 -1.175e-05 -7.9e-06 
3e-06 -1.175e-05 -7.9e-06 
3.25e-06 -1.175e-05 -7.9e-06 
3.5e-06 -1.175e-05 -7.9e-06 
3.75e-06 -1.175e-05 -7.9e-06 
4e-06 -1.175e-05 -7.9e-06 
4.25e-06 -1.175e-05 -7.9e-06 
4.5e-06 -1.175e-05 -7.9e-06 
4.75e-06 -1.175e-05 -7.9e-06 
5e-06 -1.175e-05 -7.9e-06 
5.25e-06 -1.175e-05 -7.9e-06 
5.5e-06 -1.175e-05 -7.9e-06 
5.75e-06 -1.175e-05 -7.9e-06 
6e-06 -1.175e-05 -7.9e-06 
6.25e-06 -1.175e-05 -7.9e-06 
6.5e-06 -1.175e-05 -7.9e-06 
6.75e-06 -1.175e-05 -7.9e-06 
7e-06 -1.175e-05 -7.9e-06 
7.25e-06 -1.175e-05 -7.9e-06 
7.5e-06 -1.175e-05 -7.9e-06 
7.75e-06 -1.175e-05 -7.9e-06 
8e-06 -1.175e-05 -7.9e-06 
8.25e-06 -1.175e-05 -7.9e-06 
8.5e-06 -1.175e-05 -7.9e-06 
8.75e-06 -1.175e-05 -7.9e-06 
9e-06 -1.175e-05 -7.9e-06 
9.25e-06 -1.175e-05 -7.9e-06 
9.5e-06 -1.175e-05 -7.9e-06 
9.75e-06 -1.175e-05 -7.9e-06 
1e-05 -1.175e-05 -7.9e-06 
1.025e-05 -1.175e-05 -7.9e-06 
1.05e-05 -1.175e-05 -7.9e-06 
1.075e-05 -1.175e-05 -7.9e-06 
1.1e-05 -1.175e-05 -7.9e-06 
1.125e-05 -1.175e-05 -7.9e-06 
1.15e-05 -1.175e-05 -7.9e-06 
1.175e-05 -1.175e-05 -7.9e-06 
1.2e-05 -1.175e-05 -7.9e-06 
1.225e-05 -1.175e-05 -7.9e-06 
-1.2e-05 -1.15e-05 -7.9e-06 
-1.225e-05 -1.15e-05 -7.9e-06 
-1.175e-05 -1.15e-05 -7.9e-06 
-1.15e-05 -1.15e-05 -7.9e-06 
-1.125e-05 -1.15e-05 -7.9e-06 
-1.1e-05 -1.15e-05 -7.9e-06 
-1.075e-05 -1.15e-05 -7.9e-06 
-1.05e-05 -1.15e-05 -7.9e-06 
-1.025e-05 -1.15e-05 -7.9e-06 
-1e-05 -1.15e-05 -7.9e-06 
-9.75e-06 -1.15e-05 -7.9e-06 
-9.5e-06 -1.15e-05 -7.9e-06 
-9.25e-06 -1.15e-05 -7.9e-06 
-9e-06 -1.15e-05 -7.9e-06 
-8.75e-06 -1.15e-05 -7.9e-06 
-8.5e-06 -1.15e-05 -7.9e-06 
-8.25e-06 -1.15e-05 -7.9e-06 
-8e-06 -1.15e-05 -7.9e-06 
-7.75e-06 -1.15e-05 -7.9e-06 
-7.5e-06 -1.15e-05 -7.9e-06 
-7.25e-06 -1.15e-05 -7.9e-06 
-7e-06 -1.15e-05 -7.9e-06 
-6.75e-06 -1.15e-05 -7.9e-06 
-6.5e-06 -1.15e-05 -7.9e-06 
-6.25e-06 -1.15e-05 -7.9e-06 
-6e-06 -1.15e-05 -7.9e-06 
-5.75e-06 -1.15e-05 -7.9e-06 
-5.5e-06 -1.15e-05 -7.9e-06 
-5.25e-06 -1.15e-05 -7.9e-06 
-5e-06 -1.15e-05 -7.9e-06 
-4.75e-06 -1.15e-05 -7.9e-06 
-4.5e-06 -1.15e-05 -7.9e-06 
-4.25e-06 -1.15e-05 -7.9e-06 
-4e-06 -1.15e-05 -7.9e-06 
-3.75e-06 -1.15e-05 -7.9e-06 
-3.5e-06 -1.15e-05 -7.9e-06 
-3.25e-06 -1.15e-05 -7.9e-06 
-3e-06 -1.15e-05 -7.9e-06 
-2.75e-06 -1.15e-05 -7.9e-06 
-2.5e-06 -1.15e-05 -7.9e-06 
-2.25e-06 -1.15e-05 -7.9e-06 
-2e-06 -1.15e-05 -7.9e-06 
-1.75e-06 -1.15e-05 -7.9e-06 
-1.5e-06 -1.15e-05 -7.9e-06 
-1.25e-06 -1.15e-05 -7.9e-06 
[...]
POINT_DATA 14141
SCALARS Velocities float 1
LOOKUP_TABLE default
-3.37431e-06
-3.38596e-06
-3.43232e-06
-3.42093e-06
-3.46746e-06
-3.48345e-06
-3.49669e-06
-3.36753e-06
-3.50388e-06
-3.65689e-06
-3.28e-06
-3.53517e-06
-3.27078e-06
-3.36718e-06
-3.45695e-06
-3.55612e-06
-3.48645e-06
-3.4731e-06
-3.24316e-06
-3.27753e-06
-3.45225e-06
-3.19006e-06
-3.69695e-06
-3.52054e-06
-3.4694e-06
-3.52747e-06
-3.35717e-06
-3.3372e-06
-3.36147e-06
-3.38059e-06
-3.4121e-06
-3.50522e-06
-3.58524e-06
-3.52892e-06
-3.56822e-06
-3.56289e-06
-3.42279e-06
-3.49703e-06
-3.47136e-06
-3.32866e-06
-3.32132e-06
-3.35608e-06
-3.38931e-06
-3.34122e-06
-3.26655e-06
-3.34764e-06
-3.30993e-06
-3.54453e-06
-3.42509e-06
-3.42149e-06
-3.51414e-06
-3.40036e-06
-3.2529e-06
-3.46682e-06
-3.19289e-06
-3.52579e-06
-3.32121e-06
-3.59687e-06
-3.46686e-06
-3.43865e-06
-3.44431e-06
-3.45031e-06
-3.52921e-06
-3.41431e-06
-3.59581e-06
-3.57723e-06
-3.43281e-06
-3.54566e-06
-3.46782e-06
-3.65972e-06
-3.29189e-06
-3.51965e-06
-3.44402e-06
-3.57056e-06
-3.45499e-06
-3.50044e-06
-3.55231e-06
-3.49513e-06
-3.62536e-06
-3.52954e-06
-3.6478e-06
-3.75278e-06
-3.48876e-06
-3.64431e-06
-3.31181e-06
-3.35934e-06
-3.39053e-06
-3.59202e-06
-3.34691e-06
-3.43394e-06
-3.3409e-06
-3.56975e-06
-3.44366e-06
-3.34064e-06
-3.44615e-06
-3.47813e-06
-3.5756e-06
-3.67007e-06
-3.51458e-06
-3.53641e-06
-3.37192e-06
-3.3957e-06
-3.38209e-06
-3.44385e-06
-3.51421e-06
-3.50954e-06
-3.37442e-06
-3.65489e-06
-3.30659e-06
-3.38311e-06
-3.40061e-06
-3.38942e-06
-3.40407e-06
-3.56337e-06
-3.3095e-06
-3.41303e-06
-3.44563e-06
-3.64253e-06
-3.5064e-06
-3.5732e-06
-3.57316e-06
-3.42301e-06
-3.50612e-06
-3.4892e-06
-3.3666e-06
-3.36891e-06
-3.52433e-06
-3.46092e-06
-3.62272e-06
-3.64242e-06
-3.47855e-06
-3.49304e-06
-3.52201e-06
-3.66167e-06
-3.44089e-06
-3.52143e-06
-3.48628e-06
-3.4405e-06
-3.52607e-06
-3.36116e-06
-3.48584e-06
-3.31816e-06
-3.68404e-06
-3.42451e-06
-3.55141e-06
-3.35542e-06
-3.45047e-06
-3.513e-06
-3.31656e-06
-3.33333e-06
-3.43281e-06
-3.59503e-06
-3.36491e-06
-3.40846e-06
-3.56084e-06
-3.38379e-06
-3.51522e-06
-3.41151e-06
-3.43329e-06
-3.42743e-06
-3.4718e-06
-3.38638e-06
-3.489e-06
-3.14918e-06
-3.4725e-06
-3.505e-06
-3.60434e-06
-3.45807e-06
-3.51904e-06
-3.49883e-06
-3.42522e-06
-3.62344e-06
-3.43067e-06
-3.45622e-06
-3.44617e-06
-3.27169e-06
-3.54969e-06
-3.59232e-06
-3.25361e-06
-3.35517e-06
-3.39333e-06
-3.51411e-06
-3.42242e-06
-3.38113e-06
-3.35769e-06
-3.28155e-06
-3.33024e-06
-3.17081e-06
-3.3416e-06
-3.27999e-06
-3.32834e-06
-3.37885e-06
-3.46882e-06
-3.612e-06
-3.52591e-06
-3.30846e-06
-3.43232e-06
-3.42093e-06
-3.43582e-06
-3.60604e-06
-3.49757e-06
-3.63234e-06
-3.4882e-06
-3.54082e-06
-3.47816e-06
-3.4462e-06
-3.34138e-06
-3.24066e-06
-3.26482e-06
-3.5648e-06
-3.64329e-06
-3.51095e-06
-3.19348e-06
-3.3182e-06
-3.3587e-06
-3.49734e-06
-3.4302e-06
-3.52176e-06
-3.41238e-06
-3.56683e-06
-3.64249e-06
-3.51403e-06
-3.28331e-06
-3.55482e-06
-3.56187e-06
-3.35178e-06
-3.5797e-06
-3.33037e-06
-3.37723e-06
-3.33227e-06
-3.2875e-06
-3.60118e-06
-3.51176e-06
-3.46924e-06
-3.53091e-06
-3.51813e-06
-3.41101e-06
-3.45042e-06
-3.55095e-06
-3.75737e-06
-3.49572e-06
-3.59106e-06
-3.42497e-06
-3.35442e-06
-3.46487e-06
-3.64356e-06
-3.56178e-06
-3.41808e-06
-3.42467e-06
-3.34602e-06
-3.47409e-06
-3.43632e-06
-3.5017e-06
-3.4423e-06
-3.33167e-06
-3.37646e-06
-3.43498e-06
-3.30871e-06
-3.33863e-06
-3.38844e-06
-3.53696e-06
-3.4371e-06
-3.52429e-06
-3.51532e-06
-3.57338e-06
-3.60997e-06
-3.44585e-06
-3.58101e-06
-3.37176e-06
-3.24766e-06
-3.53801e-06
-3.51149e-06
-3.39628e-06
-3.39561e-06
-3.3292e-06
-3.39239e-06
-3.444e-06
-3.52457e-06
-3.49335e-06
-3.22282e-06
-3.38338e-06
-3.49038e-06
-3.51487e-06
-3.41968e-06
-3.53721e-06
-3.38417e-06
-3.46439e-06
-3.46709e-06
-3.54402e-06
-3.52485e-06
-3.58483e-06
-3.33065e-06
-3.39664e-06
-3.3599e-06
-3.48219e-06
-3.82951e-06
-3.60604e-06
-3.41412e-06
-3.48555e-06
-3.51009e-06
-3.38173e-06
-3.36645e-06
-3.45929e-06
-3.35681e-06
-3.38894e-06
-3.29895e-06
-3.44415e-06
-3.33598e-06
-3.42842e-06
-3.4965e-06
-3.28494e-06
-3.44101e-06
-3.43466e-06
-3.32322e-06
-3.25242e-06
-3.41986e-06
-3.44954e-06
-3.36213e-06
-3.42948e-06
-3.59531e-06
-3.48919e-06
-3.45699e-06
-3.52508e-06
-3.29936e-06
-3.28365e-06
-3.47553e-06
-3.53935e-06
-3.40016e-06
-3.58163e-06
-3.52459e-06
-3.5229e-06
-3.25954e-06
-3.39325e-06
-3.51316e-06
-3.6735e-06
-3.27416e-06
-3.31198e-06
-3.55591e-06
-3.75126e-06
-3.38726e-06
-3.38301e-06
-3.40621e-06
-3.62068e-06
-3.44376e-06
-3.42836e-06
-3.33051e-06
-3.72402e-06
-3.63563e-06
-3.25883e-06
-3.41224e-06
-3.36139e-06
-3.48742e-06
-3.53923e-06
-3.44273e-06
-3.2371e-06
-3.25658e-06
-3.33257e-06
-3.46218e-06
-3.43802e-06
-3.39744e-06
-3.55571e-06
-3.58757e-06
-3.73954e-06
-3.56595e-06
-3.33546e-06
-3.53792e-06
-3.49525e-06
-3.3091e-06
-3.3432e-06
-3.72771e-06
-3.4567e-06
-3.50936e-06
-3.31734e-06
-3.6812e-06
-3.37947e-06
-3.55269e-06
-3.4364e-06
-3.45345e-06
-3.50361e-06
-3.57468e-06
-3.50024e-06
-3.23529e-06
-3.47168e-06
-3.48226e-06
-3.32458e-06
-3.49077e-06
-3.58081e-06
-3.58188e-06
-3.4124e-06
-3.40111e-06
-3.49766e-06
-3.61455e-06
-3.42699e-06
-3.39386e-06
-3.56371e-06
-3.48555e-06
-3.60285e-06
-3.43872e-06
-3.40344e-06
-3.35581e-06
-3.50089e-06
-3.40754e-06
-3.45099e-06
-3.45213e-06
-3.48551e-06
-3.6692e-06
-3.61553e-06
-3.47151e-06
-3.57199e-06
-3.44906e-06
-3.55561e-06
-3.53768e-06
-3.55161e-06
-3.6891e-06
-3.56119e-06
-3.5089e-06
-3.58049e-06
-3.41345e-06
-3.50372e-06
-3.44545e-06
-3.28135e-06
-3.4998e-06
-3.15762e-06
-3.18887e-06
-3.44456e-06
-3.41345e-06
-3.45612e-06
-3.59333e-06
-3.52764e-06
-3.47365e-06
-3.32923e-06
-3.37791e-06
-3.41693e-06
-3.3703e-06
-3.45598e-06
-3.43861e-06
-3.6499e-06
-3.50342e-06
-3.44514e-06
-3.53616e-06
-3.399e-06
-3.54899e-06
-3.31454e-06
-3.35206e-06
-3.41446e-06
-3.68867e-06
-3.30903e-06
-3.17169e-06
-3.61388e-06
-3.41836e-06
-3.50625e-06
-3.59829e-06
-3.57584e-06
-3.65142e-06
-3.50349e-06
-3.43722e-06
-3.38228e-06
-3.49409e-06
-3.5964e-06
-3.59933e-06
-3.58873e-06
-3.67444e-06
-3.53854e-06
-3.38525e-06
-3.53032e-06
-3.35548e-06
-3.4051e-06
-3.22174e-06
-3.41867e-06
-3.47565e-06
-3.53864e-06
-3.48425e-06
-3.53552e-06
-3.37484e-06
-3.35075e-06
-3.3366e-06
-3.28041e-06
-3.34667e-06
-3.44902e-06
-3.44949e-06
-3.45942e-06
-3.51218e-06
-3.56893e-06
-3.64841e-06
-3.35865e-06
-3.61984e-06
-3.68856e-06
-3.47098e-06
-3.33093e-06
-3.31418e-06
-3.60543e-06
-3.61052e-06
-3.35412e-06
-3.38526e-06
-3.43872e-06
-3.32674e-06
-3.26328e-06
-3.35948e-06
-3.43837e-06
-3.52554e-06
-3.44437e-06
-3.55844e-06
-3.286e-06
-3.34668e-06
-3.43284e-06
-3.57005e-06
-3.49455e-06
-3.26981e-06
-3.42401e-06
-3.51579e-06
-3.41962e-06
-3.4503e-06
-3.3856e-06
-3.3394e-06
-3.44048e-06
-3.41637e-06
-3.53116e-06
-3.55546e-06
-3.37108e-06
-3.31637e-06
-3.60312e-06
-3.50521e-06
-3.49494e-06
-3.37162e-06
-3.60292e-06
-3.36003e-06
-3.44717e-06
-3.49594e-06
-3.42043e-06
-3.32384e-06
-3.50128e-06
-3.48025e-06
-3.41171e-06
-3.62066e-06
-3.45558e-06
-3.37638e-06
-3.35556e-06
-3.51846e-06
-3.33163e-06
-3.03589e-06
-3.42864e-06
-3.42123e-06
-3.42488e-06
-3.56359e-06
-3.62769e-06
-3.38726e-06
-3.43607e-06
-3.45532e-06
-3.26552e-06
-3.38957e-06
-3.49736e-06
-3.43114e-06
-3.40719e-06
-3.44862e-06
-3.27345e-06
-3.37359e-06
-3.3968e-06
-3.31602e-06
-3.49688e-06
-3.35143e-06
-3.35178e-06
-3.37159e-06
-3.48132e-06
-3.45177e-06
-3.39404e-06
-3.32148e-06
-3.36483e-06
-3.44575e-06
-3.63826e-06
-3.60023e-06
-3.33966e-06
-3.51791e-06
-3.79546e-06
-3.61885e-06
-3.59962e-06
-3.55394e-06
-3.52281e-06
-3.46782e-06
-3.43473e-06
-3.41559e-06
-3.66657e-06
-3.53982e-06
-3.70191e-06
-3.44389e-06
-3.34586e-06
-3.42376e-06
-3.71316e-06
-3.59248e-06
-3.55747e-06
-3.4812e-06
-3.5887e-06
-3.54997e-06
-3.42603e-06
-3.26328e-06
-3.37348e-06
-3.3301e-06
-3.42692e-06
-3.53609e-06
-3.60596e-06
-3.45681e-06
-3.58894e-06
-3.42382e-06
-3.36778e-06
-3.49004e-06
-3.37643e-06
-3.54685e-06
-3.41644e-06
-3.38124e-06
-3.46495e-06
-3.54249e-06
-3.49843e-06
-3.49106e-06
-3.42049e-06
-3.55522e-06
-3.31547e-06
-3.50648e-06
-3.6765e-06
-3.30729e-06
-3.41646e-06
-3.66697e-06
-3.61423e-06
-3.48571e-06
-3.50719e-06
-3.81601e-06
-3.29853e-06
-3.42042e-06
-3.44178e-06
-3.3644e-06
-3.38762e-06
-3.54361e-06
-3.54006e-06
-3.6692e-06
-3.43554e-06
-3.53518e-06
-3.75414e-06
-3.58999e-06
-3.45028e-06
-3.27409e-06
-3.40623e-06
-3.62784e-06
-3.53424e-06
-3.59878e-06
-3.66493e-06
-3.55273e-06
-3.13102e-06
-3.46857e-06
-3.36692e-06
-3.3289e-06
-3.43125e-06
-3.41046e-06
-3.37979e-06
-3.31953e-06
-3.40294e-06
-3.35097e-06
-3.38547e-06
-3.47886e-06
-3.49408e-06
-3.57718e-06
-3.47672e-06
-3.40026e-06
-3.53568e-06
-3.81234e-06
-3.41391e-06
-3.4275e-06
-3.46249e-06
-3.40458e-06
-3.34691e-06
-3.63976e-06
-3.54541e-06
-3.40325e-06
-3.51958e-06
-3.6318e-06
-3.67169e-06
-3.63572e-06
-3.48669e-06
-3.47102e-06
-3.47729e-06
-3.48618e-06
-3.51247e-06
-3.30947e-06
-3.45616e-06
-3.33246e-06
-3.47021e-06
-3.55158e-06
-3.49135e-06
-3.44855e-06
-3.55461e-06
-3.55692e-06
-3.54964e-06
-3.84181e-06
-3.52278e-06
-3.39023e-06
-3.3301e-06
-3.36864e-06
-3.37966e-06
-3.408e-06
-3.40773e-06
-3.48925e-06
-3.44072e-06
-3.41842e-06
-3.34074e-06
-3.30062e-06
-3.4954e-06
-3.39219e-06
-3.50687e-06
-3.59422e-06
-3.51792e-06
-3.34901e-06
-3.39844e-06
-3.35509e-06
-3.52222e-06
-3.74818e-06
-3.65276e-06
-3.51491e-06
-3.58391e-06
-3.4071e-06
-3.40365e-06
-3.3821e-06
-3.4276e-06
-3.595e-06
-3.58535e-06
-3.4337e-06
-3.56075e-06
-3.41089e-06
-3.33964e-06
-3.40802e-06
-3.5351e-06
-3.4506e-06
-3.86179e-06
-3.59317e-06
-3.66678e-06
-3.4622e-06
-3.37509e-06
-3.50655e-06
-3.62377e-06
-3.53162e-06
-3.60681e-06
-3.55965e-06
-3.33653e-06
-3.29575e-06
-3.53636e-06
-3.43875e-06
-3.46666e-06
-3.3284e-06
-3.59242e-06
-3.58196e-06
-3.41618e-06
-3.41715e-06
-3.46797e-06
-3.45211e-06
-3.56728e-06
-3.47389e-06
-3.37839e-06
-3.5115e-06
-3.44075e-06
-3.57734e-06
-3.43277e-06
-3.37178e-06
-3.45031e-06
-3.60348e-06
-3.44891e-06
-3.51537e-06
-3.54791e-06
-3.57116e-06
-3.53195e-06
-3.46847e-06
-3.34992e-06
-3.21908e-06
-3.27591e-06
-3.56384e-06
-3.5903e-06
-3.52251e-06
-3.48664e-06
-3.22667e-06
-3.37367e-06
-3.38463e-06
-3.45828e-06
-3.61951e-06
-3.39574e-06
-3.50646e-06
-3.38269e-06
-3.45194e-06
-3.38605e-06
-3.60353e-06
-3.34426e-06
-3.32129e-06
-3.36013e-06
-3.69104e-06
-3.52829e-06
-3.43689e-06
-3.26693e-06
-3.37966e-06
-3.34568e-06
-3.54329e-06
-3.31235e-06
-3.42688e-06
-3.70611e-06
-3.58955e-06
-3.41766e-06
-3.38181e-06
-3.34239e-06
-3.5459e-06
-3.52257e-06
-3.44758e-06
-3.61758e-06
-3.57039e-06
-3.53452e-06
-3.37085e-06
-3.55039e-06
-3.55407e-06
-3.72327e-06
-3.43402e-06
-3.31221e-06
-3.5989e-06
-3.39182e-06
-3.4042e-06
-3.41502e-06
-3.26828e-06
-3.43106e-06
-3.51319e-06
-3.47095e-06
-3.54888e-06
-3.4761e-06
-3.39232e-06
-3.39363e-06
-3.57988e-06
-3.47296e-06
-3.49017e-06
-3.47019e-06
-3.59178e-06
-3.36198e-06
-3.56967e-06
-3.34639e-06
-3.3639e-06
-3.55694e-06
-3.72234e-06
-3.52756e-06
-3.40944e-06
-3.63248e-06
-3.78164e-06
-3.53831e-06
-3.46069e-06
-3.39613e-06
-3.50214e-06
-3.36741e-06
-3.6797e-06
-3.48817e-06
-3.492e-06
-3.50499e-06
-3.40329e-06
-3.4377e-06
-3.37989e-06
-3.36851e-06
-3.31977e-06
-3.29815e-06
-3.45241e-06
-3.63619e-06
-3.58363e-06
-3.63552e-06
-3.42049e-06
-3.48021e-06
-3.38791e-06
-3.56427e-06
-3.53711e-06
-3.65764e-06
-3.43431e-06
-3.36841e-06
-3.33188e-06
-3.56611e-06
-3.43953e-06
-3.43615e-06
-3.45968e-06
-3.44507e-06
-3.51272e-06
-3.71118e-06
-3.57976e-06
-3.5062e-06
-3.44243e-06
-3.45818e-06
-3.65772e-06
-3.52807e-06
-3.5076e-06
-3.55975e-06
-3.45362e-06
-3.39239e-06
-3.66118e-06
-3.50271e-06
-3.41014e-06
-3.66145e-06
-3.50654e-06
-3.54329e-06
-3.64391e-06
-3.4597e-06
-3.44363e-06
-3.41791e-06
-3.26994e-06
-3.35084e-06
-3.38234e-06
-3.4212e-06
-3.38895e-06
-3.36034e-06
-3.49806e-06
-3.48065e-06
-3.65076e-06
-3.38924e-06
-3.30807e-06
-3.25841e-06
-3.4751e-06
-3.44951e-06
-3.47985e-06
-3.57244e-06
-3.32859e-06
-3.49666e-06
-3.38706e-06
-3.5762e-06
-3.23955e-06
-3.3987e-06
-3.34625e-06
-3.27053e-06
-3.53631e-06
-3.62583e-06
-3.4838e-06
-3.3999e-06
-3.548e-06
-3.47975e-06
-3.41972e-06
-3.56966e-06
-3.24504e-06
-3.51629e-06
-3.53606e-06
-3.5769e-06
-3.15285e-06
-3.69395e-06
-3.91214e-06
-3.60769e-06
-3.37278e-06
-3.42372e-06
-3.4725e-06
-3.53259e-06
-3.35328e-06
-3.46457e-06
-3.4645e-06
-3.4511e-06
-3.52769e-06
-3.54274e-06
-3.37995e-06
-3.72507e-06
-3.5343e-06
-3.46649e-06
-3.59238e-06
-3.39722e-06
-3.73137e-06
-3.57498e-06
-3.44404e-06
-3.57463e-06
-3.59386e-06
-3.38667e-06
-3.4288e-06
-3.47938e-06
-3.48143e-06
-3.59988e-06
-3.44113e-06
-3.45339e-06
-3.58829e-06
-3.48592e-06
-3.47684e-06
-3.51051e-06
-3.52478e-06
-3.63186e-06
-3.90015e-06
-3.52766e-06
-3.43197e-06
-3.39063e-06
-3.52382e-06
-3.4056e-06
-3.55577e-06
-3.49701e-06
-3.36185e-06
-3.50556e-06
-3.56729e-06
-3.41565e-06
-3.36893e-06
-3.43174e-06
-3.39522e-06
-3.28889e-06
-3.37259e-06
-3.41064e-06
-3.3181e-06
-3.3833e-06
-3.4597e-06
-3.50711e-06
-3.47879e-06
-3.57223e-06
-3.7131e-06
-3.45676e-06
-3.61523e-06
-3.65332e-06
-3.34242e-06
-3.42581e-06
-3.39059e-06
-3.64232e-06
-3.50916e-06
-3.58804e-06
-3.4549e-06
-3.39238e-06
-3.29746e-06
-3.22248e-06
-3.25558e-06
-3.36732e-06
-3.51957e-06
-3.42114e-06
-3.57437e-06
-3.38999e-06
-3.38709e-06
-3.19699e-06
-3.6539e-06
-3.37812e-06
-3.41205e-06
-3.44478e-06
-3.47891e-06
-3.5484e-06
-3.36785e-06
-3.30647e-06
-3.44018e-06
-3.46583e-06
-3.61492e-06
-3.29129e-06
-3.3875e-06
-3.54598e-06
-3.47212e-06
-3.23373e-06
-3.55366e-06
-3.60292e-06
-3.4129e-06
-3.49776e-06
-3.65489e-06
-3.59583e-06
-3.44906e-06
-3.64859e-06
-3.57847e-06
-3.43751e-06
-3.45352e-06
-3.54078e-06
-3.53834e-06
-3.4304e-06
-3.52675e-06
-3.49401e-06
-3.40407e-06
-3.28151e-06
-3.21328e-06
-3.62101e-06
-3.44088e-06
-3.41817e-06
-3.59152e-06
-3.71043e-06
-3.52528e-06
-3.40127e-06
-3.46265e-06
-3.61574e-06
-3.46884e-06
-3.37816e-06
-3.54374e-06
-3.61918e-06
-3.4517e-06
-3.5185e-06
-3.53784e-06
-3.37869e-06
-3.43566e-06
-3.6542e-06
-3.54708e-06
-3.52281e-06
-3.46858e-06
-3.56328e-06
-3.42543e-06
-3.35853e-06
-3.35751e-06
-3.54689e-06
-3.60905e-06
-3.46347e-06
-3.51843e-06
-3.33085e-06
-3.45589e-06
-3.50822e-06
-3.45607e-06
-3.66179e-06
-3.479e-06
-3.51698e-06
-3.49668e-06
-3.47879e-06
-3.39283e-06
-3.441e-06
-3.26748e-06
-3.68667e-06
-3.45625e-06
-3.42851e-06
-3.68845e-06
-3.50145e-06
-3.33918e-06
-3.53301e-06
-3.71301e-06
-3.37501e-06
-3.33023e-06
-3.37044e-06
-3.35719e-06
-3.33295e-06
-3.37911e-06
-3.32292e-06
-3.47996e-06
-3.48869e-06
-3.50864e-06
-3.55788e-06
-3.58004e-06
-3.38196e-06
-3.38513e-06
-3.53431e-06
-3.23124e-06
-3.62398e-06
-3.37578e-06
-3.53232e-06
-3.68833e-06
-3.41079e-06
-3.24992e-06
-3.48991e-06
-3.51568e-06
-3.3609e-06
-3.32752e-06
-3.50759e-06
-3.62429e-06
-3.54634e-06
-3.70469e-06
-3.47397e-06
-3.52987e-06
-3.37284e-06
-3.50301e-06
-3.53514e-06
-3.48478e-06
-3.48129e-06
-3.52142e-06
-3.4995e-06
-3.65677e-06
-3.49034e-06
-3.6112e-06
-3.44715e-06
-3.38818e-06
-3.23891e-06
-3.24095e-06
-3.42143e-06
-3.61098e-06
-3.54485e-06
-3.47182e-06
-3.64394e-06
-3.59212e-06
-3.50984e-06
-3.64115e-06
-3.51799e-06
-3.4962e-06
-3.55918e-06
-3.64114e-06
-3.56904e-06
-3.42342e-06
-3.45213e-06
-3.52136e-06
-3.37599e-06
-3.34589e-06
-3.34976e-06
-3.43668e-06
-3.36941e-06
-3.36428e-06
-3.46447e-06
-3.62753e-06
-3.45319e-06
-3.50123e-06
-3.49415e-06
-3.51544e-06
-3.58564e-06
-3.50018e-06
-3.53973e-06
-3.59443e-06
-3.61739e-06
-3.3719e-06
-3.33419e-06
-3.39831e-06
-3.42542e-06
-3.6026e-06
-3.33589e-06
-3.41464e-06
-3.374e-06
-3.441e-06
-3.56216e-06
-3.52598e-06
-3.51287e-06
-3.55209e-06
-3.42693e-06
-3.43886e-06
-3.52163e-06
-3.43693e-06
-3.28612e-06
-3.45434e-06
-3.40069e-06
-3.54565e-06
-3.71343e-06
-3.56641e-06
-3.40347e-06
-3.44146e-06
-3.47039e-06
-3.38978e-06
-3.3953e-06
-3.60336e-06
-3.6049e-06
-3.46425e-06
-3.48739e-06
-3.45948e-06
-3.32481e-06
-3.4927e-06
-3.62378e-06
-3.46472e-06
-3.32378e-06
-3.49968e-06
-3.48953e-06
-3.43964e-06
-3.42926e-06
-3.59665e-06
-3.4116e-06
-3.54535e-06
-3.65807e-06
-3.64184e-06
-3.4693e-06
-3.53771e-06
-3.58225e-06
-3.4754e-06
-3.59309e-06
-3.43314e-06
-3.5999e-06
-3.41789e-06
-3.44301e-06
-3.64489e-06
-3.69166e-06
-3.57983e-06
-3.41738e-06
-3.43374e-06
-3.60713e-06
-3.59486e-06
-3.44801e-06
-3.55378e-06
-3.4018e-06
-3.45566e-06
-3.39395e-06
-3.43663e-06
-3.41828e-06
-3.50209e-06
-3.52029e-06
-3.4806e-06
-3.43311e-06
-3.27095e-06
-3.49679e-06
-3.42698e-06
-3.40879e-06
-3.196e-06
-3.44996e-06
-3.47898e-06
-3.46929e-06
-3.43876e-06
-3.42631e-06
-3.47814e-06
-3.39506e-06
-3.16212e-06
-3.3567e-06
-3.47307e-06
-3.70445e-06
-3.49352e-06
-3.39524e-06
-3.52666e-06
-3.52796e-06
-3.4547e-06
-3.35254e-06
-3.48372e-06
-3.66343e-06
-3.48303e-06
-3.46958e-06
-3.35814e-06
-3.44003e-06
-3.3053e-06
-3.50082e-06
-3.51044e-06
-3.46024e-06
-3.39826e-06
-3.52598e-06
-3.50066e-06
-3.40018e-06
-3.19692e-06
-3.61474e-06
-3.58965e-06
-3.45915e-06
-3.43512e-06
-3.37599e-06
-3.36148e-06
-3.51392e-06
-3.47081e-06
-3.4139e-06
-3.66062e-06
-3.37221e-06
-3.37642e-06
-3.42135e-06
-3.36778e-06
-3.33324e-06
-3.35483e-06
-3.45874e-06
-3.49906e-06
-3.64121e-06
-3.59874e-06
-3.77111e-06
-3.40383e-06
-3.53325e-06
-3.50982e-06
-3.41707e-06
-3.44385e-06
-3.63194e-06
-3.59934e-06
-3.5374e-06
-3.51401e-06
-3.35805e-06
-3.42982e-06
-3.54751e-06
-3.42818e-06
-3.53372e-06
-3.535e-06
-3.39758e-06
-3.44307e-06
-3.48264e-06
-3.42508e-06
-3.36617e-06
-3.28671e-06
-3.42841e-06
-3.35799e-06
-3.5082e-06
-3.61371e-06
-3.36614e-06
-3.38888e-06
-3.3183e-06
-3.50482e-06
-3.70603e-06
-3.30416e-06
-3.51351e-06
-3.54305e-06
-3.52221e-06
-3.44759e-06
-3.47746e-06
-3.43961e-06
-3.28916e-06
-3.51649e-06
-3.43225e-06
-3.45684e-06
-3.44627e-06
-3.3684e-06
-3.61225e-06
-3.50907e-06
-3.40034e-06
-3.55462e-06
-3.40671e-06
-3.48538e-06
-3.37846e-06
-3.27978e-06
-3.45417e-06
-3.49277e-06
-3.43568e-06
-3.44188e-06
-3.5804e-06
-3.45747e-06
-3.29894e-06
-3.38126e-06
-3.2391e-06
-3.3045e-06
-3.22923e-06
-3.35607e-06
-3.50953e-06
-3.67112e-06
-3.62459e-06
-3.49202e-06
-3.52643e-06
-3.43701e-06
-3.43633e-06
-3.75438e-06
-3.58435e-06
-3.42758e-06
-3.37576e-06
-3.40018e-06
-3.46355e-06
-3.36805e-06
-3.34718e-06
-3.3267e-06
-3.47722e-06
-3.41499e-06
-3.49197e-06
-3.50114e-06
-3.54602e-06
-3.27589e-06
-3.36172e-06
-3.42875e-06
-3.41473e-06
-3.3203e-06
-3.36926e-06
-3.38143e-06
-3.2559e-06
-3.51458e-06
-3.34732e-06
-3.41895e-06
-3.50118e-06
-3.64063e-06
-3.66641e-06
-3.51863e-06
-3.65491e-06
-3.39791e-06
-3.26219e-06
-3.28715e-06
-3.49457e-06
-3.44462e-06
-3.35388e-06
-3.733e-06
-3.43676e-06
-3.41825e-06
-3.50135e-06
-3.50331e-06
-3.31413e-06
-3.50048e-06
-3.40822e-06
-3.34599e-06
-3.32981e-06
-3.66669e-06
-3.59003e-06
-3.31567e-06
-3.54871e-06
-3.57518e-06
-3.49978e-06
-3.55042e-06
-3.70357e-06
-3.52604e-06
-3.54848e-06
-3.39163e-06
-3.40328e-06
-3.49106e-06
-3.44507e-06
-3.56157e-06
-3.53629e-06
-3.3309e-06
-3.38271e-06
-3.53443e-06
-3.7264e-06
-3.36946e-06
-3.44205e-06
-3.29596e-06
-3.45637e-06
-3.67693e-06
-3.30666e-06
-3.52485e-06
-3.44653e-06
-3.61189e-06
-3.62296e-06
-3.46202e-06
-3.41655e-06
-3.46484e-06
-3.48268e-06
-3.52731e-06
-3.38764e-06
-3.29394e-06
-3.37995e-06
-3.33808e-06
-3.43617e-06
-3.50002e-06
-3.62253e-06
-3.38692e-06
-3.43662e-06
-3.46571e-06
-3.82232e-06
-3.61679e-06
-3.43661e-06
-3.46075e-06
-3.30122e-06
-3.2698e-06
-3.4178e-06
-3.47675e-06
-3.49923e-06
-3.56164e-06
-3.45538e-06
-3.64654e-06
-3.36805e-06
-3.73556e-06
-3.53321e-06
-3.48228e-06
-3.40183e-06
-3.55981e-06
-3.45617e-06
-3.77705e-06
-3.68091e-06
-3.42264e-06
-3.25153e-06
-3.38165e-06
-3.52646e-06
-3.37308e-06
-3.15772e-06
-3.25416e-06
-3.56163e-06
-3.46977e-06
-3.63708e-06
-3.42091e-06
-3.28995e-06
-3.42177e-06
-3.44416e-06
-3.43213e-06
-3.48644e-06
-3.68192e-06
-3.43882e-06
-3.30889e-06
-3.49907e-06
-3.64484e-06
-3.36385e-06
-3.47084e-06
-3.43853e-06
-3.34181e-06
-3.27332e-06
-3.36763e-06
-3.45272e-06
-3.28914e-06
-3.4549e-06
-3.41567e-06
-3.37223e-06
-3.46085e-06
-3.7047e-06
-3.47917e-06
-3.42899e-06
-3.37377e-06
-3.6348e-06
-3.64768e-06
-3.44498e-06
-3.56939e-06
-3.65314e-06
-3.38514e-06
-3.66213e-06
-3.66956e-06
-3.50338e-06
-3.34517e-06
-3.33345e-06
-3.31875e-06
-3.3673e-06
-3.46415e-06
-3.4634e-06
-3.50304e-06
-3.44064e-06