# vtk DataFile Version 2.0
3D Surface
ASCII
DATASET UNSTRUCTURED_GRID
POINTS 17973 float
-5.5e-06 -1.225e-05 -1.05021e-05 
-5.5e-06 -1.21976e-05 -1.05e-05 
-5.5228e-06 -1.225e-05 -1.05e-05 
-5.46484e-06 -1.225e-05 -1.05e-05 
-4.5e-06 -1.225e-05 -1.05006e-05 
-4.5e-06 -1.2239e-05 -1.05e-05 
-4.51945e-06 -1.225e-05 -1.05e-05 
-4.48404e-06 -1.225e-05 -1.05e-05 
1.15e-05 -1.225e-05 -1.05014e-05 
1.15e-05 -1.22245e-05 -1.05e-05 
1.14814e-05 -1.225e-05 -1.05e-05 
1.15481e-05 -1.225e-05 -1.05e-05 
-6.25e-06 -1.175e-05 -1.05011e-05 
-6.26422e-06 -1.175e-05 -1.05e-05 
-6.25e-06 -1.1773e-05 -1.05e-05 
-6.23705e-06 -1.175e-05 -1.05e-05 
-7.75e-06 -1.15e-05 -1.0504e-05 
-7.81525e-06 -1.15e-05 -1.05e-05 
-7.75e-06 -1.15737e-05 -1.05e-05 
-7.63377e-06 -1.15e-05 -1.05e-05 
-6.25e-06 -1.17314e-05 -1.05e-05 
4.75e-06 -1.15e-05 -1.05007e-05 
4.7403e-06 -1.15e-05 -1.05e-05 
4.75e-06 -1.15142e-05 -1.05e-05 
4.77099e-06 -1.15e-05 -1.05e-05 
6e-06 -1.15e-05 -1.0504e-05 
5.94486e-06 -1.15e-05 -1.05e-05 
6e-06 -1.15713e-05 -1.05e-05 
6.05562e-06 -1.15e-05 -1.05e-05 
9e-06 -1.15e-05 -1.05079e-05 
8.93156e-06 -1.15e-05 -1.05e-05 
9e-06 -1.15792e-05 -1.05e-05 
9.0783e-06 -1.15e-05 -1.05e-05 
-1.2e-05 -1.125e-05 -1.05008e-05 
-1.20114e-05 -1.125e-05 -1.05e-05 
-1.2e-05 -1.12675e-05 -1.05e-05 
-1.19489e-05 -1.125e-05 -1.05e-05 
-7.75e-06 -1.14051e-05 -1.05e-05 
3e-06 -1.125e-05 -1.05002e-05 
2.99744e-06 -1.125e-05 -1.05e-05 
3e-06 -1.12558e-05 -1.05e-05 
3.0048e-06 -1.125e-05 -1.05e-05 
4.75e-06 -1.1481e-05 -1.05e-05 
6e-06 -1.13362e-05 -1.05e-05 
8.25e-06 -1.125e-05 -1.05014e-05 
8.22539e-06 -1.125e-05 -1.05e-05 
8.25e-06 -1.1268e-05 -1.05e-05 
8.26889e-06 -1.125e-05 -1.05e-05 
9e-06 -1.13931e-05 -1.05e-05 
-1.2e-05 -1.12341e-05 -1.05e-05 
3e-06 -1.12367e-05 -1.05e-05 
8.25e-06 -1.1233e-05 -1.05e-05 
-3e-06 -1.075e-05 -1.05039e-05 
-3.05653e-06 -1.075e-05 -1.05e-05 
-3e-06 -1.08522e-05 -1.05e-05 
-2.9304e-06 -1.075e-05 -1.05e-05 
8.75e-06 -1.075e-05 -1.05009e-05 
8.73244e-06 -1.075e-05 -1.05e-05 
8.75e-06 -1.07599e-05 -1.05e-05 
8.7858e-06 -1.075e-05 -1.05e-05 
-1.025e-05 -1.05e-05 -1.05007e-05 
-1.02592e-05 -1.05e-05 -1.05e-05 
-1.025e-05 -1.05099e-05 -1.05e-05 
-1.02375e-05 -1.05e-05 -1.05e-05 
-3e-06 -1.06253e-05 -1.05e-05 
-2.5e-06 -1.05e-05 -1.05002e-05 
-2.5055e-06 -1.05e-05 -1.05e-05 
-2.5e-06 -1.05061e-05 -1.05e-05 
-2.4967e-06 -1.05e-05 -1.05e-05 
4.5e-06 -1.05e-05 -1.05061e-05 
4.41359e-06 -1.05e-05 -1.05e-05 
4.5e-06 -1.05733e-05 -1.05e-05 
4.64791e-06 -1.05e-05 -1.05e-05 
8.75e-06 -1.07316e-05 -1.05e-05 
1.15e-05 -1.05e-05 -1.05019e-05 
1.14716e-05 -1.05e-05 -1.05e-05 
1.15e-05 -1.06342e-05 -1.05e-05 
1.15536e-05 -1.05e-05 -1.05e-05 
-1.025e-05 -1.04779e-05 -1.05e-05 
-7.25e-06 -1.025e-05 -1.05006e-05 
-7.25989e-06 -1.025e-05 -1.05e-05 
-7.25e-06 -1.02704e-05 -1.05e-05 
-7.23949e-06 -1.025e-05 -1.05e-05 
-2.5e-06 -1.04918e-05 -1.05e-05 
-1.5e-06 -1.025e-05 -1.05029e-05 
-1.55116e-06 -1.025e-05 -1.05e-05 
-1.5e-06 -1.0296e-05 -1.05e-05 
-1.4399e-06 -1.025e-05 -1.05e-05 
2.75e-06 -1.025e-05 -1.05028e-05 
2.70311e-06 -1.025e-05 -1.05e-05 
2.75e-06 -1.02885e-05 -1.05e-05 
2.78994e-06 -1.025e-05 -1.05e-05 
4.5e-06 -1.04181e-05 -1.05e-05 
1.15e-05 -1.04768e-05 -1.05e-05 
-1.15e-05 -1e-05 -1.05005e-05 
-1.15082e-05 -1e-05 -1.05e-05 
-1.15e-05 -1.00112e-05 -1.05e-05 
-1.1485e-05 -1e-05 -1.05e-05 
-7.25e-06 -1.02375e-05 -1.05e-05 
-4e-06 -1e-05 -1.05045e-05 
-4.06154e-06 -1e-05 -1.05e-05 
-4e-06 -1.01304e-05 -1.05e-05 
-3.75e-06 -1.0114e-05 -1.05e-05 
-3.75e-06 -1e-05 -1.05093e-05 
-3.65756e-06 -1e-05 -1.05e-05 
-1.5e-06 -1.01929e-05 -1.05e-05 
2.75e-06 -1.01267e-05 -1.05e-05 
4.25e-06 -1e-05 -1.05027e-05 
4.20028e-06 -1e-05 -1.05e-05 
4.25e-06 -1.00417e-05 -1.05e-05 
4.31903e-06 -1e-05 -1.05e-05 
1.2e-05 -1e-05 -1.05018e-05 
1.19537e-05 -1e-05 -1.05e-05 
1.2e-05 -1.0022e-05 -1.05e-05 
1.2041e-05 -1e-05 -1.05e-05 
-1.15e-05 -9.97685e-06 -1.05e-05 
-6.75e-06 -9.75e-06 -1.05037e-05 
-6.81725e-06 -9.75e-06 -1.05e-05 
-6.75e-06 -9.87997e-06 -1.05e-05 
-6.71185e-06 -9.75e-06 -1.05e-05 
-5.5e-06 -9.75e-06 -1.05004e-05 
-5.5065e-06 -9.75e-06 -1.05e-05 
-5.5e-06 -9.76967e-06 -1.05e-05 
-5.49349e-06 -9.75e-06 -1.05e-05 
-4e-06 -9.84482e-06 -1.05e-05 
-3.75e-06 -9.87401e-06 -1.05e-05 
4.25e-06 -9.95127e-06 -1.05e-05 
9.5e-06 -9.75e-06 -1.05036e-05 
9.45113e-06 -9.75e-06 -1.05e-05 
9.5e-06 -9.94181e-06 -1.05e-05 
9.58556e-06 -9.75e-06 -1.05e-05 
1.05e-05 -9.75e-06 -1.05061e-05 
1.04104e-05 -9.75e-06 -1.05e-05 
1.05e-05 -9.83669e-06 -1.05e-05 
1.06069e-05 -9.75e-06 -1.05e-05 
1.2e-05 -9.97456e-06 -1.05e-05 
-6.75e-06 -9.70379e-06 -1.05e-05 
-5.5e-06 -9.74402e-06 -1.05e-05 
9.5e-06 -9.70062e-06 -1.05e-05 
1.05e-05 -9.69238e-06 -1.05e-05 
-3.5e-06 -9.25e-06 -1.05003e-05 
-3.51959e-06 -9.25e-06 -1.05e-05 
-3.5e-06 -9.25319e-06 -1.05e-05 
-3.44447e-06 -9.25e-06 -1.05e-05 
-1.5e-06 -9.25e-06 -1.05009e-05 
-1.55315e-06 -9.25e-06 -1.05e-05 
-1.5e-06 -9.269e-06 -1.05e-05 
-1.46762e-06 -9.25e-06 -1.05e-05 
7.5e-07 -9.25e-06 -1.05005e-05 
7.03076e-07 -9.25e-06 -1.05e-05 
7.5e-07 -9.25774e-06 -1.05e-05 
7.60235e-07 -9.25e-06 -1.05e-05 
1.5e-06 -9.25e-06 -1.05012e-05 
1.45989e-06 -9.25e-06 -1.05e-05 
1.5e-06 -9.32662e-06 -1.05e-05 
1.53838e-06 -9.25e-06 -1.05e-05 
-7.5e-06 -9e-06 -1.05041e-05 
-7.63081e-06 -9e-06 -1.05e-05 
-7.5e-06 -9.0993e-06 -1.05e-05 
-7.44739e-06 -9e-06 -1.05e-05 
-3.5e-06 -9.19542e-06 -1.05e-05 
-1.5e-06 -9.22935e-06 -1.05e-05 
7.5e-07 -9.2386e-06 -1.05e-05 
1.5e-06 -9.22405e-06 -1.05e-05 
4.5e-06 -9e-06 -1.05023e-05 
4.37925e-06 -9e-06 -1.05e-05 
4.5e-06 -9.0403e-06 -1.05e-05 
4.58139e-06 -9e-06 -1.05e-05 
-7.5e-06 -8.88197e-06 -1.05e-05 
-6.25e-06 -8.75e-06 -1.05039e-05 
-6.30123e-06 -8.75e-06 -1.05e-05 
-6.25e-06 -8.81326e-06 -1.05e-05 
-6.19881e-06 -8.75e-06 -1.05e-05 
4.5e-06 -8.89353e-06 -1.05e-05 
4.75e-06 -8.76011e-06 -1.05e-05 
4.75e-06 -8.75e-06 -1.05002e-05 
4.73479e-06 -8.75e-06 -1.05e-05 
4.7723e-06 -8.75e-06 -1.05e-05 
-6.5e-06 -8.5e-06 -1.05003e-05 
-6.5163e-06 -8.5e-06 -1.05e-05 
-6.5e-06 -8.50456e-06 -1.05e-05 
-6.25e-06 -8.5e-06 -1.05005e-05 
-6.2401e-06 -8.5e-06 -1.05e-05 
-1e-06 -8.5e-06 -1.05039e-05 
-1.05321e-06 -8.5e-06 -1.05e-05 
-1e-06 -8.64679e-06 -1.05e-05 
-9.21636e-07 -8.5e-06 -1.05e-05 
1.25e-06 -8.5e-06 -1.05083e-05 
1.1271e-06 -8.5e-06 -1.05e-05 
1.25e-06 -8.64886e-06 -1.05e-05 
1.48379e-06 -8.5e-06 -1.05e-05 
2.25e-06 -8.5e-06 -1.05009e-05 
2.05676e-06 -8.5e-06 -1.05e-05 
2.25e-06 -8.53086e-06 -1.05e-05 
2.27177e-06 -8.5e-06 -1.05e-05 
4.75e-06 -8.74665e-06 -1.05e-05 
1e-05 -8.5e-06 -1.05008e-05 
9.99136e-06 -8.5e-06 -1.05e-05 
1e-05 -8.51324e-06 -1.05e-05 
1.00162e-05 -8.5e-06 -1.05e-05 
1.1e-05 -8.5e-06 -1.0501e-05 
1.09818e-05 -8.5e-06 -1.05e-05 
1.1e-05 -8.52168e-06 -1.05e-05 
1.10195e-05 -8.5e-06 -1.05e-05 
-1.125e-05 -8.25e-06 -1.05002e-05 
-1.12534e-05 -8.25e-06 -1.05e-05 
-1.125e-05 -8.25277e-06 -1.05e-05 
-1.12465e-05 -8.25e-06 -1.05e-05 
-8.5e-06 -8.25e-06 -1.05085e-05 
-8.59744e-06 -8.25e-06 -1.05e-05 
-8.5e-06 -8.3416e-06 -1.05e-05 
-8.38852e-06 -8.25e-06 -1.05e-05 
-6.5e-06 -8.49583e-06 -1.05e-05 
-6.25e-06 -8.49439e-06 -1.05e-05 
-4.5e-06 -8.25e-06 -1.05026e-05 
-4.53621e-06 -8.25e-06 -1.05e-05 
-4.5e-06 -8.32594e-06 -1.05e-05 
-4.36566e-06 -8.25e-06 -1.05e-05 
-1e-06 -8.36984e-06 -1.05e-05 
2.5e-07 -8.25e-06 -1.05e-05 
2.49747e-07 -8.25e-06 -1.05e-05 
2.5e-07 -8.25012e-06 -1.05e-05 
2.50151e-07 -8.25e-06 -1.05e-05 
1.25e-06 -8.34971e-06 -1.05e-05 
2e-06 -8.25e-06 -1.05021e-05 
1.9772e-06 -8.25e-06 -1.05e-05 
2e-06 -8.47298e-06 -1.05e-05 
2.25e-06 -8.34404e-06 -1.05e-05 
2.2002e-06 -8.25e-06 -1.05e-05 
2.5e-06 -8.27106e-06 -1.05e-05 
2.5e-06 -8.25e-06 -1.05008e-05 
2.34619e-06 -8.25e-06 -1.05e-05 
2.75e-06 -8.25483e-06 -1.05e-05 
2.75e-06 -8.25e-06 -1.05005e-05 
3e-06 -8.30529e-06 -1.05e-05 
3e-06 -8.25e-06 -1.05036e-05 
3.04251e-06 -8.25e-06 -1.05e-05 
1e-05 -8.48324e-06 -1.05e-05 
1.1e-05 -8.48181e-06 -1.05e-05 
-1.125e-05 -8.24539e-06 -1.05e-05 
-8.5e-06 -8e-06 -1.05028e-05 
-8.58313e-06 -8e-06 -1.05e-05 
-8.46911e-06 -8e-06 -1.05e-05 
-6e-06 -8e-06 -1.05018e-05 
-6.05089e-06 -8e-06 -1.05e-05 
-6e-06 -8.02776e-06 -1.05e-05 
-5.75e-06 -8.02327e-06 -1.05e-05 
-5.75e-06 -8e-06 -1.05014e-05 
-5.72557e-06 -8e-06 -1.05e-05 
-4.5e-06 -8.06339e-06 -1.05e-05 
-3.75e-06 -8e-06 -1.05047e-05 
-3.86064e-06 -8e-06 -1.05e-05 
-3.75e-06 -8.2049e-06 -1.05e-05 
-3.58189e-06 -8e-06 -1.05e-05 
-1.75e-06 -8e-06 -1.05044e-05 
-1.93831e-06 -8e-06 -1.05e-05 
-1.75e-06 -8.11068e-06 -1.05e-05 
-1.68743e-06 -8e-06 -1.05e-05 
-5e-07 -8e-06 -1.05028e-05 
-5.72628e-07 -8e-06 -1.05e-05 
-5e-07 -8.06564e-06 -1.05e-05 
-3.80462e-07 -8e-06 -1.05e-05 
2.5e-07 -8.24994e-06 -1.05e-05 
1e-06 -8e-06 -1.05057e-05 
9.26898e-07 -8e-06 -1.05e-05 
1e-06 -8.12203e-06 -1.05e-05 
1.08663e-06 -8e-06 -1.05e-05 
2e-06 -8e-06 -1.05104e-05 
1.88243e-06 -8e-06 -1.05e-05 
2.183e-06 -8e-06 -1.05e-05 
2.5e-06 -8.21043e-06 -1.05e-05 
2.75e-06 -8e-06 -1.05019e-05 
2.67372e-06 -8e-06 -1.05e-05 
3e-06 -8e-06 -1.05052e-05 
3.12853e-06 -8e-06 -1.05e-05 
5.25e-06 -8e-06 -1.05019e-05 
5.20153e-06 -8e-06 -1.05e-05 
5.25e-06 -8.04985e-06 -1.05e-05 
5.28671e-06 -8e-06 -1.05e-05 
6e-06 -8e-06 -1.05038e-05 
5.91846e-06 -8e-06 -1.05e-05 
6e-06 -8.06995e-06 -1.05e-05 
6.08457e-06 -8e-06 -1.05e-05 
7.25e-06 -8e-06 -1.05009e-05 
7.22895e-06 -8e-06 -1.05e-05 
7.25e-06 -8.01596e-06 -1.05e-05 
7.27702e-06 -8e-06 -1.05e-05 
-8.5e-06 -7.96125e-06 -1.05e-05 
-7e-06 -7.75e-06 -1.05024e-05 
-7.04872e-06 -7.75e-06 -1.05e-05 
-7e-06 -7.78475e-06 -1.05e-05 
-6.95254e-06 -7.75e-06 -1.05e-05 
-6e-06 -7.9632e-06 -1.05e-05 
-5.75e-06 -7.97158e-06 -1.05e-05 
-4.25e-06 -7.75e-06 -1.05075e-05 
-4.3403e-06 -7.75e-06 -1.05e-05 
-4.25e-06 -7.86857e-06 -1.05e-05 
-4e-06 -7.87273e-06 -1.05e-05 
-4e-06 -7.75e-06 -1.05057e-05 
-3.75e-06 -7.75e-06 -1.05023e-05 
-3.71014e-06 -7.75e-06 -1.05e-05 
-3e-06 -7.75e-06 -1.05008e-05 
-3.04161e-06 -7.75e-06 -1.05e-05 
-3e-06 -7.76851e-06 -1.05e-05 
-2.98239e-06 -7.75e-06 -1.05e-05 
-2e-06 -7.75e-06 -1.0507e-05 
[...]
POINT_DATA 17973
SCALARS Velocities float 1
LOOKUP_TABLE default
-3.34256e-06
-3.34256e-06
-3.34256e-06
-3.34256e-06
-3.62288e-06
-3.62288e-06
-3.62288e-06
-3.62288e-06
-3.43743e-06
-3.43743e-06
-3.43743e-06
-3.43743e-06
-3.22301e-06
-3.22301e-06
-3.22301e-06
-3.22301e-06
-3.72856e-06
-3.72856e-06
-3.72856e-06
-3.72856e-06
-3.22301e-06
-3.34646e-06
-3.34646e-06
-3.34646e-06
-3.34646e-06
-3.49465e-06
-3.49465e-06
-3.49465e-06
-3.49465e-06
-3.49329e-06
-3.49329e-06
-3.49329e-06
-3.49329e-06
-3.28067e-06
-3.28067e-06
-3.28067e-06
-3.28067e-06
-3.72856e-06
-3.19043e-06
-3.19043e-06
-3.19043e-06
-3.19043e-06
-3.34646e-06
-3.47311e-06
-3.43666e-06
-3.43666e-06
-3.43666e-06
-3.43666e-06
-3.49329e-06
-3.28067e-06
-3.19043e-06
-3.43666e-06
-3.52774e-06
-3.52774e-06
-3.52774e-06
-3.52774e-06
-3.32516e-06
-3.32516e-06
-3.32516e-06
-3.32516e-06
-3.55361e-06
-3.55361e-06
-3.55361e-06
-3.55361e-06
-3.52774e-06
-3.25897e-06
-3.25897e-06
-3.25897e-06
-3.25897e-06
-3.46807e-06
-3.46807e-06
-3.46807e-06
-3.52848e-06
-3.32516e-06
-3.5022e-06
-3.5022e-06
-3.62632e-06
-3.5022e-06
-3.55361e-06
-3.42768e-06
-3.42768e-06
-3.42768e-06
-3.42768e-06
-3.25897e-06
-3.5321e-06
-3.5321e-06
-3.5321e-06
-3.5321e-06
-3.49475e-06
-3.49475e-06
-3.49475e-06
-3.49475e-06
-3.46807e-06
-3.5022e-06
-3.52399e-06
-3.52399e-06
-3.52399e-06
-3.52399e-06
-3.42768e-06
-3.13381e-06
-3.13381e-06
-3.29537e-06
-3.19709e-06
-3.19709e-06
-3.19709e-06
-3.5321e-06
-3.49475e-06
-3.32167e-06
-3.32167e-06
-3.32167e-06
-3.32167e-06
-3.48568e-06
-3.48568e-06
-3.48568e-06
-3.48568e-06
-3.52399e-06
-3.35796e-06
-3.35796e-06
-3.40258e-06
-3.35796e-06
-3.62562e-06
-3.62562e-06
-3.62562e-06
-3.62562e-06
-3.51012e-06
-3.44217e-06
-3.32167e-06
-3.69861e-06
-3.69861e-06
-3.55481e-06
-3.69861e-06
-3.43307e-06
-3.43307e-06
-3.43307e-06
-3.43307e-06
-3.48568e-06
-3.35796e-06
-3.62562e-06
-3.69861e-06
-3.43307e-06
-3.38046e-06
-3.38046e-06
-3.38046e-06
-3.38046e-06
-3.33087e-06
-3.33087e-06
-3.33087e-06
-3.33087e-06
-3.53355e-06
-3.53355e-06
-3.53355e-06
-3.53355e-06
-3.49527e-06
-3.49527e-06
-3.49527e-06
-3.49527e-06
-3.56403e-06
-3.27406e-06
-3.56403e-06
-3.56403e-06
-3.38046e-06
-3.33087e-06
-3.53355e-06
-3.49527e-06
-3.45052e-06
-3.45052e-06
-3.45052e-06
-3.45052e-06
-3.56403e-06
-3.07176e-06
-3.07176e-06
-3.07176e-06
-3.07176e-06
-3.45052e-06
-3.43458e-06
-3.43458e-06
-3.43458e-06
-3.43458e-06
-3.54623e-06
-3.54623e-06
-3.54623e-06
-3.45516e-06
-3.45516e-06
-3.4828e-06
-3.4828e-06
-3.45126e-06
-3.4828e-06
-3.22246e-06
-3.22246e-06
-3.28575e-06
-3.30887e-06
-3.45322e-06
-3.47922e-06
-3.45322e-06
-3.45322e-06
-3.43458e-06
-3.41633e-06
-3.41633e-06
-3.41633e-06
-3.41633e-06
-3.46584e-06
-3.46584e-06
-3.46584e-06
-3.46584e-06
-3.60366e-06
-3.60366e-06
-3.60366e-06
-3.60366e-06
-3.54053e-06
-3.54053e-06
-3.54053e-06
-3.54053e-06
-3.54623e-06
-3.45516e-06
-3.42712e-06
-3.42712e-06
-3.42712e-06
-3.64797e-06
-3.49408e-06
-3.43271e-06
-3.43271e-06
-3.43271e-06
-3.43271e-06
-3.44298e-06
-3.51296e-06
-3.51296e-06
-3.47922e-06
-3.51967e-06
-3.51967e-06
-3.44933e-06
-3.44933e-06
-3.51967e-06
-3.3786e-06
-3.3786e-06
-3.58156e-06
-3.58156e-06
-3.58156e-06
-3.41633e-06
-3.46584e-06
-3.60366e-06
-3.47229e-06
-3.47229e-06
-3.47229e-06
-3.57032e-06
-3.57032e-06
-3.57032e-06
-3.41584e-06
-3.41584e-06
-3.41584e-06
-3.42205e-06
-3.38823e-06
-3.38823e-06
-3.20543e-06
-3.37025e-06
-3.84185e-06
-3.43873e-06
-3.84185e-06
-3.84185e-06
-3.43154e-06
-3.43154e-06
-3.43154e-06
-3.43154e-06
-3.43271e-06
-3.46103e-06
-3.46103e-06
-3.46103e-06
-3.46103e-06
-3.4248e-06
-3.4248e-06
-3.3655e-06
-3.44933e-06
-3.51356e-06
-3.51356e-06
-3.5518e-06
-3.615e-06
-3.26238e-06
-3.26238e-06
-3.26238e-06
-3.26238e-06
-3.54729e-06
-3.54729e-06
-3.54729e-06
-3.54729e-06
-3.41807e-06
-3.41807e-06
-3.41807e-06
-3.41807e-06
-3.47229e-06
-3.41832e-06
-3.41832e-06
-3.41832e-06
-3.41832e-06
-3.57032e-06
-3.41584e-06
-3.39354e-06
-3.39354e-06
-3.39354e-06
-3.63734e-06
-3.63734e-06
-3.61147e-06
-3.61147e-06
-3.51584e-06
-3.51584e-06
-3.51584e-06
-3.51584e-06
-3.36713e-06
-3.50085e-06
-3.43873e-06
-3.46898e-06
-3.45162e-06
-3.45162e-06
-3.45162e-06
-3.27218e-06
-3.27218e-06
-3.27218e-06
-3.27218e-06
-3.58709e-06
-3.58709e-06
-3.51913e-06
-3.51913e-06
-3.51913e-06
-3.56785e-06
-3.60421e-06
-3.60421e-06
-3.60421e-06
-3.45683e-06
-3.45683e-06
-3.34278e-06
-3.34278e-06
-3.59985e-06
-3.39784e-06
-3.50614e-06
-3.5518e-06
-3.28936e-06
-3.25941e-06
-3.30257e-06
-3.28936e-06
-3.26238e-06
-3.46693e-06
-3.50218e-06
-3.46693e-06
-3.41807e-06
-3.39208e-06
-3.39208e-06
-3.39208e-06
-3.39208e-06
-3.41832e-06
-3.36767e-06
-3.36767e-06
-3.36767e-06
-3.36767e-06
-3.52064e-06
-3.52064e-06
-3.52064e-06
-3.48891e-06
-3.48891e-06
-3.48158e-06
-3.44152e-06
-3.60151e-06
-3.38168e-06
-3.60151e-06
-3.62062e-06
-3.62062e-06
-3.62062e-06
-3.51584e-06
-3.6051e-06
-3.6051e-06
-3.6051e-06
-3.38786e-06
-3.502e-06
-3.46876e-06
-3.45162e-06
-3.27218e-06
-3.57298e-06
-3.36952e-06
-3.57298e-06
-3.51913e-06
-3.51369e-06
-3.51369e-06
-3.51369e-06
-3.51369e-06
-3.67092e-06
-3.59616e-06
-3.56785e-06
-3.62067e-06
-3.56173e-06
-3.56173e-06
-3.46858e-06
-3.47508e-06
-3.34278e-06
-3.55326e-06
-3.56117e-06
-3.42029e-06
-3.25941e-06
-3.46736e-06
-3.46736e-06
-3.45154e-06
-3.45154e-06
-3.45154e-06
-3.6839e-06
-3.6839e-06
-3.6839e-06
-3.6839e-06
-3.39208e-06
-3.61692e-06
-3.61692e-06
-3.61692e-06
-3.36767e-06
-3.61692e-06
-3.40535e-06
-3.56595e-06
-3.25919e-06
-3.48158e-06
-3.5048e-06
-3.44152e-06
-3.50032e-06
-3.52965e-06
-3.63871e-06
-3.59885e-06
-3.30169e-06
-3.30169e-06
-3.30169e-06
-3.52798e-06
-3.24257e-06
-3.36128e-06
-3.36128e-06
-3.50563e-06
-3.39469e-06
-3.3759e-06
-3.46777e-06
-3.36208e-06
-3.44858e-06
-3.44858e-06
-3.44858e-06
-3.24741e-06
-3.5626e-06
-3.36952e-06
-3.52415e-06
-3.61883e-06
-3.51369e-06
-3.48919e-06
-3.48919e-06
-3.48919e-06
-3.26379e-06
-3.40961e-06
-3.26379e-06
-3.40961e-06
-3.65392e-06
-3.43661e-06
-3.2598e-06
-3.52485e-06
-3.47508e-06
-3.52335e-06
-3.52485e-06
-3.85213e-06
-3.85213e-06
-3.42027e-06
-3.42027e-06
-3.34759e-06
-3.31766e-06
-3.34759e-06
-3.31766e-06
-3.71595e-06
-3.41676e-06
-3.30047e-06
-3.30047e-06
-3.34928e-06
-3.29873e-06
-3.46736e-06
-3.3152e-06
-3.3152e-06
-3.3152e-06
-3.3152e-06
-3.45154e-06
-3.6839e-06
-3.34796e-06
-3.34796e-06
-3.34796e-06
-3.44106e-06
-3.44106e-06
-3.44106e-06
-3.28205e-06
-3.46494e-06
-3.37936e-06
-3.46494e-06
-3.32111e-06
-3.32111e-06
-3.25919e-06
-3.5048e-06
-3.20165e-06
-3.61964e-06
-3.53752e-06
-3.63871e-06
-3.59885e-06
-3.52563e-06
-3.54702e-06
-3.33358e-06
-3.47192e-06
-3.66065e-06
-3.47694e-06
-3.47694e-06
-3.30289e-06
-3.41053e-06
-3.44858e-06
-3.34278e-06
-3.34278e-06
-3.34278e-06
-3.24741e-06
-3.34278e-06
-3.45673e-06
-3.48919e-06
-3.32919e-06
-3.46824e-06
-3.32919e-06
-3.33607e-06
-3.37968e-06
-3.33607e-06
-3.2598e-06
-3.52485e-06
-3.53293e-06
-3.41832e-06
-3.50089e-06
-3.50089e-06
-3.26538e-06
-3.34759e-06
-3.48932e-06
-3.26538e-06
-3.52661e-06
-3.49768e-06
-3.46074e-06
-3.5175e-06
-3.42564e-06
-3.42564e-06
-3.6308e-06
-3.55207e-06
-3.55207e-06
-3.46896e-06
-3.46896e-06
-3.53236e-06
-3.53236e-06
-3.57491e-06
-3.6268e-06
-3.65111e-06
-3.65111e-06
-3.65111e-06
-3.28566e-06
-3.28566e-06
-3.28566e-06
-3.28566e-06
-3.59091e-06
-3.59091e-06
-3.59091e-06
-3.34796e-06
-3.59091e-06
-3.49186e-06
-3.49186e-06
-3.28205e-06
-3.47139e-06
-3.47139e-06
-3.48214e-06
-3.42904e-06
-3.42904e-06
-3.42904e-06
-3.42904e-06
-3.52965e-06
-3.51636e-06
-3.37886e-06
-3.51636e-06
-3.48421e-06
-3.67258e-06
-3.51105e-06
-3.63318e-06
-3.35457e-06
-3.35457e-06
-3.41053e-06
-3.40851e-06
-3.40851e-06
-3.45687e-06
-3.46836e-06
-3.45687e-06
-3.54201e-06
-3.54201e-06
-3.45673e-06
-3.33692e-06
-3.39953e-06
-3.212e-06
-3.28989e-06
-3.2659e-06
-3.52789e-06
-3.47185e-06
-3.59937e-06
-3.51838e-06
-3.42033e-06
-3.70364e-06
-3.70364e-06
-3.53096e-06
-3.71228e-06
-3.51895e-06
-3.51895e-06
-3.5175e-06
-3.44696e-06
-3.44696e-06
-3.31902e-06
-3.46573e-06
-3.49942e-06
-3.49942e-06
-3.53236e-06
-3.64096e-06
-3.64096e-06
-3.51025e-06
-3.51025e-06
-3.20871e-06
-3.20871e-06
-3.20871e-06
-3.20871e-06
-3.40417e-06
-3.25569e-06
-3.25569e-06
-3.25569e-06
-3.25569e-06
-3.59091e-06
-3.49916e-06
-3.49916e-06
-3.49916e-06
-3.4117e-06
-3.49916e-06
-3.47139e-06
-3.42904e-06
-3.5071e-06
-3.5071e-06
-3.5071e-06
-3.25566e-06
-3.42578e-06
-3.43111e-06
-3.4389e-06
-3.52965e-06
-3.35798e-06
-3.51636e-06
-3.64984e-06
-3.55159e-06
-3.55159e-06
-3.48421e-06
-3.37254e-06
-3.32299e-06
-3.32765e-06
-3.63318e-06
-3.41234e-06
-3.35276e-06
-3.35276e-06
-3.44315e-06
-3.55372e-06
-3.55372e-06
-3.46974e-06
-3.53517e-06
-3.59234e-06
-3.59234e-06
-3.44842e-06
-3.50579e-06
-3.26189e-06
-3.35771e-06
-3.28562e-06
-3.26189e-06
-3.38542e-06
-3.38542e-06
-3.37666e-06
-3.18617e-06
-3.48149e-06
-3.4595e-06
-3.48149e-06
-3.4595e-06
-3.60019e-06
-3.64581e-06
-3.48753e-06
-3.51895e-06
-3.45685e-06
-3.54934e-06
-3.54934e-06
-3.49194e-06
-3.4234e-06
-3.37663e-06
-3.40539e-06
-3.40539e-06
-3.41855e-06
-3.41855e-06
-3.30043e-06
-3.30043e-06
-3.20871e-06
-3.25569e-06
-3.49916e-06
-3.67832e-06
-3.67832e-06
-3.67832e-06
-3.70234e-06
-3.55111e-06
-3.33263e-06
-3.33263e-06
-3.3267e-06
-3.3267e-06
-3.3267e-06
-3.28406e-06
-3.1673e-06
-3.44964e-06
-3.55546e-06
-3.35281e-06
-3.44346e-06
-3.35624e-06
-3.33058e-06
-3.33058e-06
-3.49369e-06
-3.54366e-06
-3.54366e-06
-3.58791e-06
-3.54366e-06
-3.58791e-06
-3.35276e-06
-3.47215e-06
-3.47215e-06
-3.55372e-06
-3.61911e-06
-3.64192e-06
-3.46974e-06
-3.56858e-06
-3.56858e-06
-3.56858e-06
-3.56858e-06
-3.48478e-06
-3.48478e-06
-3.48478e-06
-3.48478e-06
-3.47143e-06
-3.47143e-06
-3.49391e-06
-3.49391e-06
-3.50695e-06
-3.56059e-06
-3.56055e-06
-3.27836e-06
-3.36268e-06
-3.36268e-06
-3.47683e-06
-3.44804e-06
-3.62305e-06
-3.36584e-06
-3.73685e-06
-3.37653e-06
-3.41956e-06
-3.26661e-06
-3.26661e-06
-3.30129e-06
-3.56225e-06
-3.55665e-06
-3.56225e-06
-3.73205e-06
-3.45855e-06
-3.30043e-06
-3.47304e-06
-3.47304e-06
-3.47304e-06
-3.47304e-06
-3.43835e-06
-3.53698e-06
-3.43835e-06
-3.48983e-06
-3.48983e-06
-3.48983e-06
-3.44679e-06
-3.45989e-06
-3.44679e-06
-3.44679e-06
-3.47382e-06
-3.47382e-06
-3.47382e-06
-3.47382e-06
-3.44069e-06
-3.44069e-06
-3.44069e-06
-3.44069e-06
-3.428e-06
-3.428e-06
-3.428e-06
-3.428e-06
-3.60069e-06
-3.60069e-06
-3.43112e-06
-3.35844e-06
-3.40205e-06
-3.1673e-06
-3.46043e-06
-3.52526e-06
-3.54011e-06
-3.61502e-06
-3.29558e-06
-3.33239e-06
-3.36941e-06
-3.54064e-06
-3.33058e-06
-3.4778e-06
-3.54064e-06
-3.30285e-06
-3.30285e-06
-3.49889e-06
-3.33298e-06
-3.49041e-06
-3.47215e-06
-3.44696e-06
-3.50625e-06
-3.56858e-06
-3.62841e-06
-3.62841e-06
-3.62841e-06
-3.47143e-06
-3.22837e-06
-3.47692e-06
-3.55204e-06
-3.27836e-06
-3.36268e-06
-3.64543e-06
-3.64543e-06
-3.64543e-06
-3.46376e-06
-3.60857e-06
-3.55657e-06
-3.39019e-06
-3.37858e-06
-3.41658e-06
-3.26661e-06
-3.41639e-06
-3.30129e-06
-3.37197e-06
-3.6252e-06
-3.57868e-06
-3.57714e-06
-3.47304e-06
-3.3577e-06
-3.47801e-06
-3.41772e-06
-3.41772e-06
-3.53635e-06
-3.53635e-06
-3.53635e-06
-3.53635e-06
-3.44679e-06
-3.47382e-06
-3.44069e-06
-3.49586e-06
-3.5299e-06
-3.49586e-06
-3.49586e-06
-3.428e-06
-3.65323e-06
-3.48898e-06
-3.65323e-06
-3.40847e-06
-3.41647e-06
-3.55942e-06
-3.40555e-06
-3.47131e-06
-3.65053e-06
-3.32841e-06
-3.48128e-06
-3.53471e-06
-3.54064e-06
-3.53182e-06
-3.44859e-06
-3.25016e-06
-3.44131e-06
-3.49889e-06
-3.53949e-06
-3.53949e-06
-3.53949e-06
-3.62841e-06
-3.64543e-06
-3.61764e-06
-3.61764e-06
-3.59067e-06
-3.60857e-06
-3.77872e-06
-3.59067e-06
-3.49243e-06
-3.58006e-06
-3.34498e-06
-3.41875e-06
-3.59008e-06
-3.6252e-06
-3.49771e-06
-3.57868e-06
-3.38959e-06
-3.38959e-06
-3.52156e-06
-3.27062e-06
-3.51051e-06
-3.50277e-06
-3.39835e-06
-3.50277e-06
-3.39835e-06
-3.49964e-06
-3.51126e-06
-3.45607e-06
-3.3577e-06
-3.53635e-06
-3.4386e-06
-3.4386e-06
-3.5299e-06
-3.49586e-06
-3.54718e-06
-3.54982e-06
-3.45161e-06
-3.65323e-06
-3.75231e-06
-3.50687e-06
-3.68932e-06
-3.61019e-06
-3.38979e-06
-3.21638e-06
-3.42121e-06
-3.44896e-06
-3.50195e-06
-3.56599e-06
-3.5531e-06
-3.60034e-06
-3.4692e-06
-3.4692e-06
-3.53949e-06
-3.48149e-06
-3.4958e-06
-3.48149e-06
-3.48149e-06
-3.61764e-06
-3.51643e-06
-3.51643e-06
-3.56156e-06
-3.50345e-06
-3.51042e-06
-3.27551e-06
-3.51954e-06
-3.44894e-06
-3.36069e-06
-3.53864e-06
-3.47355e-06
-3.53864e-06
-3.47355e-06
-3.5997e-06
-3.43583e-06
-3.39835e-06
-3.75038e-06
-3.75038e-06
-3.61323e-06
-3.61323e-06
-3.61323e-06
-3.65603e-06
-3.65603e-06
-3.65603e-06
-3.47934e-06
-3.54718e-06
-3.43159e-06
-3.43159e-06
-3.60499e-06
-3.60499e-06
-3.65338e-06
-3.60499e-06
-3.4662e-06
-3.4662e-06
-3.45161e-06
-3.53988e-06
-3.57791e-06
-3.57791e-06
-3.37242e-06
-3.57791e-06
-3.60559e-06
-3.47233e-06
-3.45802e-06
-3.47914e-06
-3.41448e-06
-3.60097e-06
-3.59787e-06
-3.59787e-06
-3.56599e-06
-3.5531e-06
-3.75553e-06
-3.4692e-06
-3.41059e-06
-3.41059e-06
-3.41059e-06
-3.41059e-06
-3.504e-06
-3.504e-06
-3.504e-06
-3.34654e-06
-3.69264e-06
-3.47602e-06
-3.56073e-06
-3.56647e-06
-3.44084e-06
-3.56647e-06
-3.45069e-06
-3.38038e-06
-3.4212e-06
-3.4212e-06
-3.4212e-06
-3.20552e-06
-3.20552e-06
-3.20552e-06
-3.20552e-06
-3.57535e-06
-3.58475e-06
-3.57535e-06
-3.35342e-06
-3.51678e-06
-3.30472e-06
-3.61273e-06
-3.78002e-06
-3.49941e-06
-3.53864e-06
-3.65692e-06
-3.42494e-06
-3.38618e-06
-3.43583e-06
-3.34532e-06
-3.43054e-06
-3.64748e-06
-3.43054e-06
-3.67171e-06
-3.67171e-06
-3.64447e-06
-3.64447e-06
-3.52894e-06
-3.50533e-06
-3.44209e-06
-3.58181e-06
-3.61282e-06
-3.61282e-06
-3.61282e-06
-3.5018e-06
-3.34857e-06
-3.57791e-06
-3.49609e-06
-3.3963e-06
-3.4006e-06
-3.56914e-06
-3.35677e-06
-3.30827e-06
-3.30827e-06
-3.45366e-06
-3.44841e-06
-3.45366e-06
-3.41459e-06
-3.41459e-06
-3.41459e-06
-3.58436e-06
-3.58436e-06
-3.58436e-06
-3.41059e-06
-3.58436e-06
-3.44635e-06
-3.51659e-06
-3.44635e-06
-3.44635e-06
-3.61171e-06
-3.61171e-06
-3.61171e-06
-3.34298e-06
-3.52878e-06
-3.19987e-06
-3.19987e-06
-3.19987e-06
-3.19987e-06
-3.4212e-06
-3.38786e-06
-3.17878e-06
-3.57093e-06
-3.59663e-06
-3.59685e-06
-3.59663e-06
-3.3476e-06
-3.3476e-06
-3.37533e-06
-3.3476e-06
-3.58359e-06
-3.58359e-06
-3.41771e-06
-3.58359e-06
-3.47247e-06
-3.44073e-06
-3.45382e-06
-3.25133e-06
-3.2961e-06
-3.43054e-06
-3.38907e-06
-3.49029e-06
-3.49029e-06
-3.67633e-06
-3.49029e-06
-3.67633e-06
-3.45535e-06
-3.45535e-06
-3.45535e-06
-3.45535e-06
-3.59372e-06
-3.59372e-06
-3.63806e-06
-3.62822e-06
-3.38782e-06
-3.39518e-06
-3.39518e-06
-3.52894e-06
-3.39898e-06
-3.43377e-06
-3.43377e-06
-3.43377e-06
-3.58181e-06
-3.59038e-06
-3.5003e-06
-3.34427e-06
-3.30451e-06
-3.26867e-06
-3.45036e-06
-3.40601e-06
-3.6297e-06
-3.31002e-06
-3.39872e-06
-3.45366e-06
-3.36592e-06
-3.3064e-06
-3.3064e-06
-3.41459e-06
-3.61861e-06
-3.54723e-06
-3.49246e-06
-3.50145e-06
-3.50145e-06
-3.21554e-06
-3.21554e-06
-3.50881e-06
-3.46789e-06
-3.48154e-06
-3.35769e-06
-3.35769e-06
-3.35769e-06
-3.44635e-06
-3.61171e-06
-3.19987e-06
-3.2308e-06
-3.59137e-06
-3.59137e-06
-3.59137e-06
-3.37533e-06
-3.34637e-06
-3.38036e-06
-3.46083e-06
-3.54069e-06
-3.54985e-06
-3.34406e-06
-3.62424e-06
-3.35322e-06
-3.49029e-06
-3.60832e-06
-3.54449e-06
-3.48536e-06
-3.27911e-06
-3.48536e-06
-3.43103e-06
-3.48358e-06
-3.59805e-06
-3.38588e-06
-3.38588e-06
-3.38588e-06
-3.38588e-06
-3.37865e-06
-3.42784e-06
-3.43861e-06
-3.3473e-06
-3.3473e-06
-3.43861e-06
-3.39898e-06
-3.26334e-06
-3.40867e-06
-3.40867e-06
-3.48522e-06
-3.5763e-06
-3.47391e-06
-3.5763e-06
-3.35834e-06
-3.28956e-06
-3.22797e-06
-3.2958e-06
-3.55951e-06
-3.60304e-06
-3.60304e-06
-3.39872e-06
-3.36592e-06
-3.43361e-06
-3.43361e-06
-3.42974e-06
-3.43361e-06
-3.47173e-06
-3.47173e-06
-3.57967e-06
-3.57967e-06
-3.4754e-06
-3.46789e-06
-3.48154e-06
-3.35769e-06
-3.26787e-06
-3.48035e-06
-3.26787e-06
-3.45081e-06
-3.45081e-06
-3.46897e-06
-3.46897e-06
-3.30861e-06
-3.41396e-06
-3.44713e-06
-3.42611e-06
-3.62897e-06
-3.16643e-06
-3.484e-06
-3.68443e-06
-3.68443e-06
-3.41523e-06
-3.41523e-06
-3.47281e-06
-3.43551e-06
-3.35388e-06
-3.4102e-06
-3.47759e-06
-3.32958e-06
-3.32958e-06
-3.07948e-06
-3.39242e-06
-3.50334e-06
-3.50334e-06
-3.3948e-06
-3.30861e-06
-3.3948e-06
-3.39881e-06
-3.51749e-06
-3.35347e-06
-3.41492e-06
-3.35877e-06
-3.35877e-06
-3.60304e-06
-3.36678e-06
-3.35877e-06
-3.36678e-06
-3.52558e-06
-3.52558e-06
-3.52558e-06
-3.33689e-06
-3.33689e-06
-3.33689e-06
-3.35795e-06
-3.35795e-06
-3.47171e-06
-3.39315e-06
-3.39315e-06
-3.39315e-06
-3.54381e-06
-3.64164e-06
-3.43824e-06
-3.46897e-06
-3.54381e-06
-3.5228e-06
-3.64902e-06
-3.64902e-06
-3.37368e-06
-3.46391e-06
-3.50811e-06
-3.41214e-06
-3.57033e-06
-3.68443e-06
-3.58876e-06
-3.51676e-06
-3.51676e-06
-3.41523e-06
-3.51676e-06
-3.3876e-06
-3.43551e-06
-3.53014e-06
-3.3876e-06
-3.53014e-06
-3.35388e-06
-3.34803e-06
-3.34803e-06
-3.34803e-06
-3.34803e-06
-3.36132e-06
-3.36132e-06
-3.36132e-06
-3.36132e-06
-3.32958e-06
-3.38577e-06
-3.38577e-06
-3.26007e-06
-3.26007e-06
-3.46212e-06
-3.26007e-06
-3.29719e-06
-3.32332e-06
-3.32332e-06
-3.32332e-06
-3.33262e-06
-3.36691e-06
-3.33262e-06
-3.49676e-06
-3.66377e-06
-3.66377e-06
-3.30489e-06
-3.47473e-06
-3.51362e-06
-3.47908e-06
-3.33689e-06
-3.35795e-06
-3.35229e-06
-3.35229e-06
-3.35229e-06
-3.39315e-06
-3.55942e-06
-3.45886e-06
-3.45886e-06
-3.39255e-06
-3.36522e-06
-3.33366e-06
-3.47492e-06
-3.58616e-06
-3.58616e-06
-3.42385e-06
-3.58616e-06
-3.34863e-06
-3.51676e-06
-3.41829e-06
-3.41829e-06
-3.34863e-06
-3.41281e-06
-3.41281e-06
-3.49271e-06
-3.41281e-06
-3.43475e-06
-3.43475e-06
-3.43475e-06
-3.43475e-06
-3.34803e-06
-3.36132e-06
-3.5875e-06
-3.5875e-06
-3.26007e-06
-3.63607e-06
-3.43965e-06
-3.29719e-06
-3.46241e-06
-3.4739e-06
-3.32153e-06
-3.36978e-06
-3.32153e-06
-3.31296e-06
-3.31296e-06
-3.31402e-06
-3.35842e-06
-3.25803e-06
-3.31402e-06
-3.29192e-06
-3.29192e-06
-3.29192e-06
-3.54904e-06
-3.37937e-06
-3.37937e-06
-3.37937e-06
-3.35229e-06
-3.31635e-06
-3.43447e-06
-3.32731e-06
-3.45458e-06
-3.47053e-06
-3.44651e-06
-3.58616e-06
-3.4745e-06
-3.62301e-06
-3.62301e-06
-3.14628e-06
-3.14628e-06
-3.48272e-06
-3.49271e-06
-3.56549e-06
-3.5333e-06
-3.58459e-06
-3.43671e-06
-3.43671e-06
-3.43671e-06
-3.43475e-06
-3.32773e-06
-3.32773e-06
-3.32773e-06
-3.41778e-06
-3.41778e-06
-3.68525e-06
-3.41778e-06
-3.31084e-06
-3.45222e-06
-3.44598e-06
-3.32153e-06
-3.27233e-06
-3.22734e-06
-3.22734e-06
-3.31402e-06
-3.49906e-06
-3.49906e-06
-3.49906e-06
-3.437e-06
-3.47402e-06
-3.47402e-06
-3.37937e-06
-3.41327e-06
-3.41327e-06
-3.37181e-06
-3.39787e-06
-3.50507e-06
-3.50507e-06
-3.50507e-06
-3.53901e-06
-3.3613e-06
-3.45025e-06
-3.42409e-06
-3.50229e-06
-3.31013e-06
-3.62301e-06
-3.40388e-06
-3.50561e-06
-3.50561e-06
-3.14628e-06
-3.25087e-06
-3.34359e-06
-3.5055e-06
-3.29848e-06
-3.5055e-06
-3.36041e-06
-3.36743e-06
-3.36743e-06
-3.36743e-06
-3.33335e-06
-3.33335e-06
-3.33335e-06
-3.33335e-06
-3.32773e-06
-3.65271e-06
-3.37817e-06
-3.4797e-06
-3.68339e-06
-3.47688e-06
-3.47688e-06
-3.33545e-06
-3.22734e-06
-3.46192e-06
-3.59313e-06
-3.56482e-06
-3.51002e-06
-3.51002e-06
-3.44814e-06
-3.44814e-06
-3.39882e-06
-3.39882e-06
-3.39882e-06
-3.49906e-06
-3.35436e-06
-3.35436e-06
-3.35436e-06
-3.47402e-06
-3.41327e-06
-3.41277e-06
-3.41277e-06
-3.41277e-06
-3.53901e-06
-3.69747e-06
-3.40109e-06
-3.5643e-06
-3.75359e-06
-3.5643e-06
-3.59288e-06
-3.36145e-06
-3.50884e-06
-3.24869e-06
-3.45925e-06
-3.24869e-06
-3.45925e-06
-3.5055e-06
-3.53684e-06
-3.60245e-06
-3.60245e-06
-3.70431e-06
-3.36743e-06
-3.55036e-06
-3.60853e-06
-3.38669e-06
-3.55036e-06
-3.42714e-06
-3.42714e-06
-3.42714e-06
-3.42714e-06
-3.33335e-06
-3.65609e-06
-3.65609e-06
-3.65609e-06
-3.52389e-06
-3.40001e-06
-3.51431e-06
-3.41875e-06
-3.42115e-06
-3.42115e-06
-3.41428e-06
-3.54556e-06
-3.54556e-06
-3.58713e-06
-3.49283e-06
-3.58713e-06
-3.33545e-06
-3.38564e-06
-3.56959e-06
-3.56959e-06
-3.41651e-06
-3.56959e-06
-3.51002e-06
-3.44814e-06
-3.47304e-06
-3.47304e-06
-3.47304e-06
-3.35436e-06
-3.50171e-06
-3.50171e-06
-3.50171e-06
-3.50171e-06
-3.41277e-06
-3.49769e-06
-3.55542e-06
-3.48305e-06
-3.37119e-06
-3.5076e-06
-3.5076e-06
-3.52543e-06
-3.52543e-06
-3.52543e-06
-3.60627e-06
-3.60245e-06
-3.51067e-06
-3.53645e-06
-3.60853e-06
-3.63292e-06