# vtk DataFile Version 2.0
3D Surface
ASCII
DATASET UNSTRUCTURED_GRID
POINTS 14917 float
-1.2e-05 -1.225e-05 -9.44992e-06 
-1.2e-05 -1.2e-05 -9.44465e-06 
-1.225e-05 -1.225e-05 -9.44007e-06 
-1.225e-05 -1.2e-05 -9.43983e-06 
-1.175e-05 -1.225e-05 -9.45772e-06 
-1.175e-05 -1.2e-05 -9.44626e-06 
-1.15e-05 -1.225e-05 -9.44458e-06 
-1.15e-05 -1.2e-05 -9.44324e-06 
-1.125e-05 -1.225e-05 -9.44879e-06 
-1.125e-05 -1.2e-05 -9.45447e-06 
-1.1e-05 -1.225e-05 -9.45764e-06 
-1.1e-05 -1.2e-05 -9.45665e-06 
-1.075e-05 -1.225e-05 -9.45654e-06 
-1.075e-05 -1.2e-05 -9.44502e-06 
-1.05e-05 -1.225e-05 -9.45173e-06 
-1.05e-05 -1.2e-05 -9.44413e-06 
-1.025e-05 -1.225e-05 -9.44911e-06 
-1.025e-05 -1.2e-05 -9.45018e-06 
-1e-05 -1.225e-05 -9.45395e-06 
-1e-05 -1.2e-05 -9.45365e-06 
-9.75e-06 -1.225e-05 -9.43807e-06 
-9.75e-06 -1.2e-05 -9.44659e-06 
-9.5e-06 -1.225e-05 -9.44832e-06 
-9.5e-06 -1.2e-05 -9.44635e-06 
-9.25e-06 -1.225e-05 -9.45268e-06 
-9.25e-06 -1.2e-05 -9.44431e-06 
-9e-06 -1.225e-05 -9.44733e-06 
-9e-06 -1.2e-05 -9.44288e-06 
-8.75e-06 -1.225e-05 -9.44764e-06 
-8.75e-06 -1.2e-05 -9.4496e-06 
-8.5e-06 -1.225e-05 -9.45376e-06 
-8.5e-06 -1.2e-05 -9.45952e-06 
-8.25e-06 -1.225e-05 -9.45743e-06 
-8.25e-06 -1.2e-05 -9.44889e-06 
-8e-06 -1.225e-05 -9.45543e-06 
-8e-06 -1.2e-05 -9.44897e-06 
-7.75e-06 -1.225e-05 -9.45444e-06 
-7.75e-06 -1.2e-05 -9.45335e-06 
-7.5e-06 -1.225e-05 -9.44541e-06 
-7.5e-06 -1.2e-05 -9.44842e-06 
-7.25e-06 -1.225e-05 -9.44713e-06 
-7.25e-06 -1.2e-05 -9.45432e-06 
-7e-06 -1.225e-05 -9.45218e-06 
-7e-06 -1.2e-05 -9.45556e-06 
-6.75e-06 -1.225e-05 -9.45173e-06 
-6.75e-06 -1.2e-05 -9.45427e-06 
-6.5e-06 -1.225e-05 -9.44707e-06 
-6.5e-06 -1.2e-05 -9.44619e-06 
-6.25e-06 -1.225e-05 -9.44981e-06 
-6.25e-06 -1.2e-05 -9.4467e-06 
-6e-06 -1.225e-05 -9.44447e-06 
-6e-06 -1.2e-05 -9.45111e-06 
-5.75e-06 -1.225e-05 -9.44706e-06 
-5.75e-06 -1.2e-05 -9.454e-06 
-5.5e-06 -1.225e-05 -9.45841e-06 
-5.5e-06 -1.2e-05 -9.45613e-06 
-5.25e-06 -1.225e-05 -9.45659e-06 
-5.25e-06 -1.2e-05 -9.46077e-06 
-5e-06 -1.225e-05 -9.44758e-06 
-5e-06 -1.2e-05 -9.44943e-06 
-4.75e-06 -1.225e-05 -9.44839e-06 
-4.75e-06 -1.2e-05 -9.44962e-06 
-4.5e-06 -1.225e-05 -9.45884e-06 
-4.5e-06 -1.2e-05 -9.45528e-06 
-4.25e-06 -1.225e-05 -9.45504e-06 
-4.25e-06 -1.2e-05 -9.44677e-06 
-4e-06 -1.225e-05 -9.45159e-06 
-4e-06 -1.2e-05 -9.45442e-06 
-3.75e-06 -1.225e-05 -9.44678e-06 
-3.75e-06 -1.2e-05 -9.44462e-06 
-3.5e-06 -1.225e-05 -9.44549e-06 
-3.5e-06 -1.2e-05 -9.44805e-06 
-3.25e-06 -1.225e-05 -9.44263e-06 
-3.25e-06 -1.2e-05 -9.45233e-06 
-3e-06 -1.225e-05 -9.447e-06 
-3e-06 -1.2e-05 -9.45208e-06 
-2.75e-06 -1.225e-05 -9.45532e-06 
-2.75e-06 -1.2e-05 -9.45679e-06 
-2.5e-06 -1.225e-05 -9.44899e-06 
-2.5e-06 -1.2e-05 -9.4499e-06 
-2.25e-06 -1.225e-05 -9.45392e-06 
-2.25e-06 -1.2e-05 -9.45319e-06 
-2e-06 -1.225e-05 -9.45095e-06 
-2e-06 -1.2e-05 -9.4534e-06 
-1.75e-06 -1.225e-05 -9.45172e-06 
-1.75e-06 -1.2e-05 -9.45637e-06 
-1.5e-06 -1.225e-05 -9.44553e-06 
-1.5e-06 -1.2e-05 -9.44817e-06 
-1.25e-06 -1.225e-05 -9.44584e-06 
-1.25e-06 -1.2e-05 -9.44945e-06 
-1e-06 -1.225e-05 -9.45247e-06 
-1e-06 -1.2e-05 -9.45131e-06 
-7.5e-07 -1.225e-05 -9.45027e-06 
-7.5e-07 -1.2e-05 -9.44716e-06 
-5e-07 -1.225e-05 -9.45268e-06 
-5e-07 -1.2e-05 -9.44686e-06 
-2.5e-07 -1.225e-05 -9.44316e-06 
-2.5e-07 -1.2e-05 -9.45478e-06 
0 -1.225e-05 -9.4462e-06 
0 -1.2e-05 -9.44127e-06 
2.5e-07 -1.225e-05 -9.45732e-06 
2.5e-07 -1.2e-05 -9.44426e-06 
5e-07 -1.225e-05 -9.45437e-06 
5e-07 -1.2e-05 -9.44576e-06 
7.5e-07 -1.225e-05 -9.44798e-06 
7.5e-07 -1.2e-05 -9.44553e-06 
1e-06 -1.225e-05 -9.449e-06 
1e-06 -1.2e-05 -9.45173e-06 
1.25e-06 -1.225e-05 -9.44569e-06 
1.25e-06 -1.2e-05 -9.45977e-06 
1.5e-06 -1.225e-05 -9.4494e-06 
1.5e-06 -1.2e-05 -9.45101e-06 
1.75e-06 -1.225e-05 -9.44002e-06 
1.75e-06 -1.2e-05 -9.45139e-06 
2e-06 -1.225e-05 -9.45044e-06 
2e-06 -1.2e-05 -9.4517e-06 
2.25e-06 -1.225e-05 -9.45e-06 
2.25e-06 -1.2e-05 -9.45297e-06 
2.5e-06 -1.225e-05 -9.45327e-06 
2.5e-06 -1.2e-05 -9.45449e-06 
2.75e-06 -1.225e-05 -9.44413e-06 
2.75e-06 -1.2e-05 -9.44482e-06 
3e-06 -1.225e-05 -9.44948e-06 
3e-06 -1.2e-05 -9.44699e-06 
3.25e-06 -1.225e-05 -9.44845e-06 
3.25e-06 -1.2e-05 -9.43984e-06 
3.5e-06 -1.225e-05 -9.45178e-06 
3.5e-06 -1.2e-05 -9.44529e-06 
3.75e-06 -1.225e-05 -9.452e-06 
3.75e-06 -1.2e-05 -9.45197e-06 
4e-06 -1.225e-05 -9.45361e-06 
4e-06 -1.2e-05 -9.44737e-06 
4.25e-06 -1.225e-05 -9.44724e-06 
4.25e-06 -1.2e-05 -9.45795e-06 
4.5e-06 -1.225e-05 -9.44684e-06 
4.5e-06 -1.2e-05 -9.44195e-06 
4.75e-06 -1.225e-05 -9.45113e-06 
4.75e-06 -1.2e-05 -9.44295e-06 
5e-06 -1.225e-05 -9.44643e-06 
5e-06 -1.2e-05 -9.4487e-06 
5.25e-06 -1.225e-05 -9.45128e-06 
5.25e-06 -1.2e-05 -9.45242e-06 
5.5e-06 -1.225e-05 -9.4532e-06 
5.5e-06 -1.2e-05 -9.45393e-06 
5.75e-06 -1.225e-05 -9.4512e-06 
5.75e-06 -1.2e-05 -9.45287e-06 
6e-06 -1.225e-05 -9.45217e-06 
6e-06 -1.2e-05 -9.45119e-06 
6.25e-06 -1.225e-05 -9.45284e-06 
6.25e-06 -1.2e-05 -9.45257e-06 
6.5e-06 -1.225e-05 -9.44869e-06 
6.5e-06 -1.2e-05 -9.4575e-06 
6.75e-06 -1.225e-05 -9.4379e-06 
6.75e-06 -1.2e-05 -9.46505e-06 
7e-06 -1.225e-05 -9.44717e-06 
7e-06 -1.2e-05 -9.45196e-06 
7.25e-06 -1.225e-05 -9.45097e-06 
7.25e-06 -1.2e-05 -9.44095e-06 
7.5e-06 -1.225e-05 -9.44812e-06 
7.5e-06 -1.2e-05 -9.44507e-06 
7.75e-06 -1.225e-05 -9.45217e-06 
7.75e-06 -1.2e-05 -9.45179e-06 
8e-06 -1.225e-05 -9.45154e-06 
8e-06 -1.2e-05 -9.44714e-06 
8.25e-06 -1.225e-05 -9.46363e-06 
8.25e-06 -1.2e-05 -9.46294e-06 
8.5e-06 -1.225e-05 -9.44589e-06 
8.5e-06 -1.2e-05 -9.44687e-06 
8.75e-06 -1.225e-05 -9.44493e-06 
8.75e-06 -1.2e-05 -9.45012e-06 
9e-06 -1.225e-05 -9.45497e-06 
9e-06 -1.2e-05 -9.45025e-06 
9.25e-06 -1.225e-05 -9.4558e-06 
9.25e-06 -1.2e-05 -9.4592e-06 
9.5e-06 -1.225e-05 -9.44624e-06 
9.5e-06 -1.2e-05 -9.45192e-06 
9.75e-06 -1.225e-05 -9.45582e-06 
9.75e-06 -1.2e-05 -9.44891e-06 
1e-05 -1.225e-05 -9.44787e-06 
1e-05 -1.2e-05 -9.45005e-06 
1.025e-05 -1.225e-05 -9.45651e-06 
1.025e-05 -1.2e-05 -9.44182e-06 
1.05e-05 -1.225e-05 -9.4578e-06 
1.05e-05 -1.2e-05 -9.44125e-06 
1.075e-05 -1.225e-05 -9.45468e-06 
1.075e-05 -1.2e-05 -9.44708e-06 
1.1e-05 -1.225e-05 -9.44862e-06 
1.1e-05 -1.2e-05 -9.44988e-06 
1.125e-05 -1.225e-05 -9.45121e-06 
1.125e-05 -1.2e-05 -9.44148e-06 
1.15e-05 -1.225e-05 -9.45565e-06 
1.15e-05 -1.2e-05 -9.44836e-06 
1.175e-05 -1.225e-05 -9.46246e-06 
1.175e-05 -1.2e-05 -9.45562e-06 
1.2e-05 -1.225e-05 -9.44433e-06 
1.2e-05 -1.2e-05 -9.44007e-06 
1.225e-05 -1.225e-05 -9.44007e-06 
1.225e-05 -1.2e-05 -9.43983e-06 
-1.2e-05 -1.175e-05 -9.45025e-06 
-1.225e-05 -1.175e-05 -9.4522e-06 
-1.175e-05 -1.175e-05 -9.4461e-06 
-1.15e-05 -1.175e-05 -9.44681e-06 
-1.125e-05 -1.175e-05 -9.44089e-06 
-1.1e-05 -1.175e-05 -9.4471e-06 
-1.075e-05 -1.175e-05 -9.44331e-06 
-1.05e-05 -1.175e-05 -9.44384e-06 
-1.025e-05 -1.175e-05 -9.445e-06 
-1e-05 -1.175e-05 -9.45181e-06 
-9.75e-06 -1.175e-05 -9.45751e-06 
-9.5e-06 -1.175e-05 -9.45344e-06 
-9.25e-06 -1.175e-05 -9.45202e-06 
-9e-06 -1.175e-05 -9.45595e-06 
-8.75e-06 -1.175e-05 -9.43823e-06 
-8.5e-06 -1.175e-05 -9.44701e-06 
-8.25e-06 -1.175e-05 -9.44717e-06 
-8e-06 -1.175e-05 -9.4448e-06 
-7.75e-06 -1.175e-05 -9.45626e-06 
-7.5e-06 -1.175e-05 -9.46208e-06 
-7.25e-06 -1.175e-05 -9.45261e-06 
-7e-06 -1.175e-05 -9.45056e-06 
-6.75e-06 -1.175e-05 -9.44755e-06 
-6.5e-06 -1.175e-05 -9.44901e-06 
-6.25e-06 -1.175e-05 -9.46162e-06 
-6e-06 -1.175e-05 -9.45003e-06 
-5.75e-06 -1.175e-05 -9.45041e-06 
-5.5e-06 -1.175e-05 -9.45293e-06 
-5.25e-06 -1.175e-05 -9.45253e-06 
-5e-06 -1.175e-05 -9.44963e-06 
-4.75e-06 -1.175e-05 -9.45293e-06 
-4.5e-06 -1.175e-05 -9.44563e-06 
-4.25e-06 -1.175e-05 -9.43532e-06 
-4e-06 -1.175e-05 -9.45689e-06 
-3.75e-06 -1.175e-05 -9.45583e-06 
-3.5e-06 -1.175e-05 -9.45754e-06 
-3.25e-06 -1.175e-05 -9.45556e-06 
-3e-06 -1.175e-05 -9.44376e-06 
-2.75e-06 -1.175e-05 -9.44943e-06 
-2.5e-06 -1.175e-05 -9.44192e-06 
-2.25e-06 -1.175e-05 -9.44782e-06 
-2e-06 -1.175e-05 -9.46081e-06 
-1.75e-06 -1.175e-05 -9.45482e-06 
-1.5e-06 -1.175e-05 -9.44806e-06 
-1.25e-06 -1.175e-05 -9.45613e-06 
-1e-06 -1.175e-05 -9.44469e-06 
-7.5e-07 -1.175e-05 -9.44487e-06 
-5e-07 -1.175e-05 -9.44319e-06 
-2.5e-07 -1.175e-05 -9.45898e-06 
0 -1.175e-05 -9.45149e-06 
2.5e-07 -1.175e-05 -9.45782e-06 
5e-07 -1.175e-05 -9.4456e-06 
7.5e-07 -1.175e-05 -9.44689e-06 
1e-06 -1.175e-05 -9.46134e-06 
1.25e-06 -1.175e-05 -9.45262e-06 
1.5e-06 -1.175e-05 -9.44679e-06 
1.75e-06 -1.175e-05 -9.4506e-06 
2e-06 -1.175e-05 -9.4492e-06 
2.25e-06 -1.175e-05 -9.44855e-06 
2.5e-06 -1.175e-05 -9.45265e-06 
2.75e-06 -1.175e-05 -9.45188e-06 
3e-06 -1.175e-05 -9.44681e-06 
3.25e-06 -1.175e-05 -9.45261e-06 
3.5e-06 -1.175e-05 -9.4481e-06 
3.75e-06 -1.175e-05 -9.45015e-06 
4e-06 -1.175e-05 -9.44628e-06 
4.25e-06 -1.175e-05 -9.45124e-06 
4.5e-06 -1.175e-05 -9.4435e-06 
4.75e-06 -1.175e-05 -9.45826e-06 
5e-06 -1.175e-05 -9.45411e-06 
5.25e-06 -1.175e-05 -9.44707e-06 
5.5e-06 -1.175e-05 -9.44753e-06 
5.75e-06 -1.175e-05 -9.45629e-06 
6e-06 -1.175e-05 -9.4528e-06 
6.25e-06 -1.175e-05 -9.45323e-06 
6.5e-06 -1.175e-05 -9.44976e-06 
6.75e-06 -1.175e-05 -9.45787e-06 
7e-06 -1.175e-05 -9.45023e-06 
7.25e-06 -1.175e-05 -9.44703e-06 
7.5e-06 -1.175e-05 -9.45712e-06 
7.75e-06 -1.175e-05 -9.44987e-06 
8e-06 -1.175e-05 -9.4505e-06 
8.25e-06 -1.175e-05 -9.45628e-06 
8.5e-06 -1.175e-05 -9.45146e-06 
8.75e-06 -1.175e-05 -9.454e-06 
9e-06 -1.175e-05 -9.4503e-06 
9.25e-06 -1.175e-05 -9.4502e-06 
9.5e-06 -1.175e-05 -9.44723e-06 
9.75e-06 -1.175e-05 -9.45577e-06 
1e-05 -1.175e-05 -9.45229e-06 
1.025e-05 -1.175e-05 -9.44734e-06 
1.05e-05 -1.175e-05 -9.44421e-06 
1.075e-05 -1.175e-05 -9.45518e-06 
1.1e-05 -1.175e-05 -9.46043e-06 
1.125e-05 -1.175e-05 -9.45244e-06 
1.15e-05 -1.175e-05 -9.45501e-06 
1.175e-05 -1.175e-05 -9.44793e-06 
1.2e-05 -1.175e-05 -9.45191e-06 
1.225e-05 -1.175e-05 -9.4522e-06 
-1.2e-05 -1.15e-05 -9.45786e-06 
-1.225e-05 -1.15e-05 -9.45281e-06 
-1.175e-05 -1.15e-05 -9.45095e-06 
-1.15e-05 -1.15e-05 -9.44828e-06 
-1.125e-05 -1.15e-05 -9.45119e-06 
[...]
POINT_DATA 14917
SCALARS Velocities float 1
LOOKUP_TABLE default
-3.30884e-06
-3.30186e-06
-3.6243e-06
-3.29381e-06
-3.2024e-06
-3.37168e-06
-3.54619e-06
-3.42834e-06
-3.40042e-06
-3.37578e-06
-3.27297e-06
-3.37952e-06
-3.39565e-06
-3.39295e-06
-3.41483e-06
-3.43626e-06
-3.25975e-06
-3.42174e-06
-3.31421e-06
-3.41339e-06
-3.35104e-06
-3.33916e-06
-3.33466e-06
-3.36412e-06
-3.29687e-06
-3.45494e-06
-3.44438e-06
-3.41994e-06
-3.27191e-06
-3.40087e-06
-3.22525e-06
-3.19362e-06
-3.12073e-06
-3.49907e-06
-3.33442e-06
-3.35465e-06
-3.50799e-06
-3.34126e-06
-3.56612e-06
-3.48888e-06
-3.38711e-06
-3.3621e-06
-3.51847e-06
-3.36821e-06
-3.42371e-06
-3.41393e-06
-3.29519e-06
-3.30752e-06
-3.29291e-06
-3.57236e-06
-3.28803e-06
-3.54958e-06
-3.28885e-06
-3.40087e-06
-3.47834e-06
-3.36076e-06
-3.6516e-06
-3.64034e-06
-3.52753e-06
-3.38574e-06
-3.3807e-06
-3.25662e-06
-3.43468e-06
-3.65141e-06
-3.57294e-06
-3.39698e-06
-3.7382e-06
-3.46753e-06
-3.51458e-06
-3.60373e-06
-3.42553e-06
-3.44459e-06
-3.29126e-06
-3.42637e-06
-3.37493e-06
-3.43015e-06
-3.31212e-06
-3.4543e-06
-3.41403e-06
-3.46156e-06
-3.49747e-06
-3.70962e-06
-3.50408e-06
-3.56013e-06
-3.41344e-06
-3.3491e-06
-3.20231e-06
-3.18387e-06
-3.32199e-06
-3.45679e-06
-3.367e-06
-3.41933e-06
-3.39329e-06
-3.15369e-06
-3.41433e-06
-3.3674e-06
-3.43901e-06
-3.52854e-06
-3.50805e-06
-3.43492e-06
-3.51651e-06
-3.35918e-06
-3.41013e-06
-3.42614e-06
-3.28101e-06
-3.42747e-06
-3.78414e-06
-3.45451e-06
-3.49601e-06
-3.39285e-06
-3.44554e-06
-3.34498e-06
-3.57947e-06
-3.62393e-06
-3.50524e-06
-3.53746e-06
-3.32472e-06
-3.45838e-06
-3.46497e-06
-3.51294e-06
-3.39691e-06
-3.41593e-06
-3.48632e-06
-3.13609e-06
-3.4059e-06
-3.25753e-06
-3.6735e-06
-3.57638e-06
-3.38306e-06
-3.49892e-06
-3.30162e-06
-3.44215e-06
-3.31281e-06
-3.57058e-06
-3.57178e-06
-3.70357e-06
-3.53718e-06
-3.51905e-06
-3.58119e-06
-3.26037e-06
-3.25741e-06
-3.15849e-06
-3.3598e-06
-3.4334e-06
-3.35864e-06
-3.56787e-06
-3.56221e-06
-3.26071e-06
-3.30133e-06
-3.39026e-06
-3.3573e-06
-3.52113e-06
-3.39218e-06
-3.43923e-06
-3.39464e-06
-3.54735e-06
-3.27574e-06
-3.52129e-06
-3.40447e-06
-3.25439e-06
-3.56343e-06
-3.39094e-06
-3.41285e-06
-3.4222e-06
-3.32284e-06
-3.50654e-06
-3.40952e-06
-3.50792e-06
-3.47598e-06
-3.46041e-06
-3.3952e-06
-3.41778e-06
-3.27805e-06
-3.29261e-06
-3.35363e-06
-3.39694e-06
-3.68806e-06
-3.45993e-06
-3.61151e-06
-3.69321e-06
-3.60949e-06
-3.55027e-06
-3.32989e-06
-3.40386e-06
-3.53014e-06
-3.41103e-06
-3.4748e-06
-3.48358e-06
-3.25984e-06
-3.51042e-06
-3.29808e-06
-3.50691e-06
-3.25295e-06
-3.47609e-06
-3.43975e-06
-3.59771e-06
-3.6243e-06
-3.29381e-06
-3.41515e-06
-3.28024e-06
-3.41328e-06
-3.46987e-06
-3.3816e-06
-3.50156e-06
-3.49341e-06
-3.63901e-06
-3.47263e-06
-3.44051e-06
-3.60798e-06
-3.56659e-06
-3.48238e-06
-3.40407e-06
-3.52629e-06
-3.40906e-06
-3.53825e-06
-3.44151e-06
-3.11965e-06
-3.30821e-06
-3.53062e-06
-3.5058e-06
-3.45418e-06
-3.41155e-06
-3.5541e-06
-3.37989e-06
-3.57678e-06
-3.51107e-06
-3.43381e-06
-3.37291e-06
-3.49242e-06
-3.38729e-06
-3.20282e-06
-3.3236e-06
-3.30186e-06
-3.22875e-06
-3.54078e-06
-3.48183e-06
-3.52138e-06
-3.62394e-06
-3.51923e-06
-3.50142e-06
-3.34762e-06
-3.29754e-06
-3.49383e-06
-3.33247e-06
-3.4849e-06
-3.29331e-06
-3.54333e-06
-3.48779e-06
-3.42932e-06
-3.34704e-06
-3.30281e-06
-3.53048e-06
-3.43448e-06
-3.39466e-06
-3.52544e-06
-3.661e-06
-3.65261e-06
-3.46593e-06
-3.41776e-06
-3.31441e-06
-3.35591e-06
-3.37188e-06
-3.28688e-06
-3.54282e-06
-3.47501e-06
-3.48747e-06
-3.2373e-06
-3.37133e-06
-3.2743e-06
-3.38687e-06
-3.41499e-06
-3.43706e-06
-3.53077e-06
-3.3523e-06
-3.5918e-06
-3.68949e-06
-3.5427e-06
-3.31646e-06
-3.45023e-06
-3.47996e-06
-3.58712e-06
-3.31881e-06
-3.39774e-06
-3.4204e-06
-3.40519e-06
-3.30674e-06
-3.29712e-06
-3.42893e-06
-3.46e-06
-3.46218e-06
-3.39197e-06
-3.40975e-06
-3.54823e-06
-3.51994e-06
-3.44397e-06
-3.2972e-06
-3.28024e-06
-3.43444e-06
-3.37972e-06
-3.50136e-06
-3.45947e-06
-3.50081e-06
-3.61843e-06
-3.49116e-06
-3.70263e-06
-3.59656e-06
-3.38357e-06
-3.39523e-06
-3.38458e-06
-3.50154e-06
-3.3274e-06
-3.41311e-06
-3.44495e-06
-3.30471e-06
-3.41094e-06
-3.49991e-06
-3.36525e-06
-3.39104e-06
-3.57474e-06
-3.50186e-06
-3.34542e-06
-3.5232e-06
-3.41301e-06
-3.5938e-06
-3.61349e-06
-3.65023e-06
-3.45816e-06
-3.49558e-06
-3.3852e-06
-3.33003e-06
-3.44618e-06
-3.29511e-06
-3.42855e-06
-3.47867e-06
-3.40408e-06
-3.55548e-06
-3.74369e-06
-3.36982e-06
-3.4898e-06
-3.48602e-06
-3.3642e-06
-3.35292e-06
-3.51438e-06
-3.469e-06
-3.56193e-06
-3.56649e-06
-3.48278e-06
-3.41726e-06
-3.49899e-06
-3.25687e-06
-3.53755e-06
-3.74179e-06
-3.62281e-06
-3.32287e-06
-3.49284e-06
-3.54202e-06
-3.64997e-06
-3.29957e-06
-3.48172e-06
-3.35598e-06
-3.54672e-06
-3.37529e-06
-3.55788e-06
-3.39103e-06
-3.24453e-06
-3.25901e-06
-3.64599e-06
-3.44666e-06
-3.43e-06
-3.50246e-06
-3.62977e-06
-3.50344e-06
-3.39969e-06
-3.61379e-06
-3.61052e-06
-3.27043e-06
-3.37233e-06
-3.31277e-06
-3.18703e-06
-3.50619e-06
-3.51259e-06
-3.57891e-06
-3.41021e-06
-3.3611e-06
-3.47054e-06
-3.60008e-06
-3.40959e-06
-3.19343e-06
-3.54063e-06
-3.31966e-06
-3.48685e-06
-3.60949e-06
-3.43481e-06
-3.32125e-06
-3.3822e-06
-3.37972e-06
-3.76892e-06
-3.57631e-06
-3.74626e-06
-3.45273e-06
-3.50263e-06
-3.33156e-06
-3.36437e-06
-3.44325e-06
-3.41211e-06
-3.47685e-06
-3.33049e-06
-3.3086e-06
-3.61171e-06
-3.63734e-06
-3.46286e-06
-3.32148e-06
-3.34473e-06
-3.38812e-06
-3.52599e-06
-3.57694e-06
-3.56155e-06
-3.41481e-06
-3.2969e-06
-3.22434e-06
-3.43785e-06
-3.27445e-06
-3.39814e-06
-3.39698e-06
-3.55011e-06
-3.5546e-06
-3.26938e-06
-3.32605e-06
-3.33951e-06
-3.47089e-06
-3.37927e-06
-3.37128e-06
-3.52249e-06
-3.36886e-06
-3.24191e-06
-3.52853e-06
-3.52762e-06
-3.70406e-06
-3.4436e-06
-3.23898e-06
-3.18873e-06
-3.40207e-06
-3.23898e-06
-3.60989e-06
-3.50532e-06
-3.36158e-06
-3.42725e-06
-3.50613e-06
-3.34311e-06
-3.37929e-06
-3.53234e-06
-3.4087e-06
-3.34004e-06
-3.33278e-06
-3.42398e-06
-3.42892e-06
-3.30312e-06
-3.66011e-06
-3.77514e-06
-3.49127e-06
-3.48669e-06
-3.56589e-06
-3.5137e-06
-3.49856e-06
-3.43089e-06
-3.63329e-06
-3.56123e-06
-3.57209e-06
-3.44027e-06
-3.43614e-06
-3.5308e-06
-3.47171e-06
-3.46708e-06
-3.49777e-06
-3.53312e-06
-3.43108e-06
-3.5533e-06
-3.41344e-06
-3.41016e-06
-3.31154e-06
-3.3599e-06
-3.47725e-06
-3.73286e-06
-3.6637e-06
-3.47176e-06
-3.46536e-06
-3.28154e-06
-3.36252e-06
-3.32366e-06
-3.37206e-06
-3.35815e-06
-3.38962e-06
-3.43535e-06
-3.38572e-06
-3.57631e-06
-3.52283e-06
-3.41274e-06
-3.5615e-06
-3.40406e-06
-3.48486e-06
-3.48081e-06
-3.36798e-06
-3.38587e-06
-3.46087e-06
-3.45642e-06
-3.52396e-06
-3.59934e-06
-3.59329e-06
-3.54132e-06
-3.38209e-06
-3.33434e-06
-3.33511e-06
-3.45094e-06
-3.38931e-06
-3.46826e-06
-3.38277e-06
-3.27614e-06
-3.62557e-06
-3.50123e-06
-3.39218e-06
-3.49823e-06
-3.59892e-06
-3.87446e-06
-3.77776e-06
-3.73347e-06
-3.45836e-06
-3.24832e-06
-3.29413e-06
-3.38336e-06
-3.53362e-06
-3.48306e-06
-3.41274e-06
-3.41349e-06
-3.3058e-06
-3.24306e-06
-3.49253e-06
-3.63207e-06
-3.38982e-06
-3.4894e-06
-3.37265e-06
-3.38888e-06
-3.42829e-06
-3.51786e-06
-3.40997e-06
-3.33092e-06
-3.40138e-06
-3.5706e-06
-3.41334e-06
-3.35342e-06
-3.32046e-06
-3.5481e-06
-3.49346e-06
-3.26469e-06
-3.54825e-06
-3.51006e-06
-3.66082e-06
-3.72993e-06
-3.57764e-06
-3.32948e-06
-3.30952e-06
-3.37205e-06
-3.46529e-06
-3.29509e-06
-3.42722e-06
-3.5885e-06
-3.56242e-06
-3.56847e-06
-3.60022e-06
-3.39613e-06
-3.40567e-06
-3.46798e-06
-3.40833e-06
-3.74216e-06
-3.57001e-06
-3.3509e-06
-3.36426e-06
-3.37216e-06
-3.70448e-06
-3.45178e-06
-3.27248e-06
-3.35824e-06
-3.38133e-06
-3.4075e-06
-3.51967e-06
-3.41314e-06
-3.38696e-06
-3.49357e-06
-3.43456e-06
-3.62713e-06
-3.48041e-06
-3.5269e-06
-3.49473e-06
-3.38651e-06
-3.41274e-06
-3.55937e-06
-3.43172e-06
-3.67321e-06
-3.49156e-06
-3.48453e-06
-3.27982e-06
-3.25748e-06
-3.60175e-06
-3.74044e-06
-3.57402e-06
-3.51123e-06
-3.41848e-06
-3.44559e-06
-3.58041e-06
-3.44588e-06
-3.67703e-06
-3.41606e-06
-3.60034e-06
-3.45553e-06
-3.3381e-06
-3.35854e-06
-3.33234e-06
-3.43431e-06
-3.42035e-06
-3.60192e-06
-3.69632e-06
-3.17614e-06
-3.43052e-06
-3.37787e-06
-3.19511e-06
-3.36225e-06
-3.38245e-06
-3.3636e-06
-3.4933e-06
-3.54823e-06
-3.30887e-06
-3.3641e-06
-3.55865e-06
-3.4014e-06
-3.37849e-06
-3.43893e-06
-3.46274e-06
-3.4765e-06
-3.46162e-06
-3.48449e-06
-3.44722e-06
-3.45189e-06
-3.41631e-06
-3.36705e-06
-3.49768e-06
-3.45179e-06
-3.3088e-06
-3.2869e-06
-3.46308e-06
-3.21187e-06
-3.34108e-06
-3.48153e-06
-3.53989e-06
-3.6317e-06
-3.58416e-06
-3.38905e-06
-3.33339e-06
-3.56521e-06
-3.46097e-06
-3.4515e-06
-3.51019e-06
-3.62645e-06
-3.19317e-06
-3.50935e-06
-3.42129e-06
-3.33982e-06
-3.60928e-06
-3.47984e-06
-3.57096e-06
-3.54032e-06
-3.32637e-06
-3.48837e-06
-3.58143e-06
-3.41391e-06
-3.29647e-06
-3.29147e-06
-3.35375e-06
-3.38009e-06
-3.51442e-06
-3.38294e-06
-3.23221e-06
-3.3265e-06
-3.55504e-06
-3.63301e-06
-3.41816e-06
-3.46785e-06
-3.52345e-06
-3.37588e-06
-3.487e-06
-3.4449e-06
-3.16962e-06
-3.36184e-06
-3.40543e-06
-3.43172e-06
-3.46086e-06
-3.42651e-06
-3.51307e-06
-3.46992e-06
-3.51735e-06
-3.58767e-06
-3.4647e-06
-3.43194e-06
-3.72189e-06
-3.38189e-06
-3.55444e-06
-3.36497e-06
-3.34598e-06
-3.59478e-06
-3.37093e-06
-3.40881e-06
-3.36633e-06
-3.56127e-06
-3.49033e-06
-3.40922e-06
-3.46062e-06
-3.23523e-06
-3.16869e-06
-3.26743e-06
-3.54647e-06
-3.45758e-06
-3.28096e-06
-3.36139e-06
-3.36541e-06
-3.46377e-06
-3.38618e-06
-3.41719e-06
-3.48529e-06
-3.55961e-06
-3.61953e-06
-3.31351e-06
-3.43982e-06
-3.33602e-06
-3.3203e-06
-3.44122e-06
-3.30288e-06
-3.27871e-06
-3.33061e-06
-3.29333e-06
-3.31595e-06
-3.25133e-06
-3.3597e-06
-3.35213e-06
-3.45233e-06
-3.49466e-06
-3.40516e-06
-3.2914e-06
-3.36691e-06
-3.53005e-06
-3.3969e-06
-3.2129e-06
-3.30045e-06
-3.45069e-06
-3.54292e-06
-3.55237e-06
-3.53524e-06
-3.17734e-06
-3.56692e-06
-3.48416e-06
-3.58425e-06
-3.35003e-06
-3.49127e-06
-3.64259e-06
-3.51442e-06
-3.37962e-06
-3.30997e-06
-3.37863e-06
-3.13805e-06
-3.38176e-06
-3.40511e-06
-3.40723e-06
-3.47388e-06
-3.45149e-06
-3.41511e-06
-3.4505e-06
-3.35041e-06
-3.24633e-06
-3.15212e-06
-3.59469e-06
-3.54199e-06
-3.44386e-06
-3.29499e-06
-3.42516e-06
-3.34075e-06
-3.2611e-06
-3.47822e-06
-3.4254e-06
-3.57238e-06
-3.24536e-06
-3.43647e-06
-3.27562e-06
-3.50705e-06
-3.51743e-06
-3.42651e-06
-3.47629e-06
-3.33674e-06
-3.39601e-06
-3.56015e-06
-3.64783e-06
-3.79444e-06
-3.48919e-06
-3.43149e-06
-3.65417e-06
-3.3461e-06
-3.5232e-06
-3.67871e-06
-3.44873e-06
-3.51708e-06
-3.30033e-06
-3.435e-06
-3.48e-06
-3.59559e-06
-3.6202e-06
-3.44529e-06
-3.72404e-06
-3.41367e-06
-3.22356e-06
-3.40412e-06
-3.5655e-06
-3.59469e-06
-3.22198e-06
-3.17178e-06
-3.42108e-06
-3.75655e-06
-3.64153e-06
-3.24479e-06
-3.40172e-06
-3.49368e-06
-3.69417e-06
-3.51633e-06
-3.36028e-06
-3.43085e-06
-3.45894e-06
-3.44588e-06
-3.50333e-06
-3.48664e-06
-3.25564e-06
-3.31768e-06
-3.48496e-06
-3.40277e-06
-3.25275e-06
-3.21742e-06
-3.34626e-06
-3.39058e-06
-3.646e-06
-3.45098e-06
-3.3001e-06
-3.26203e-06
-3.29132e-06
-3.45867e-06
-3.47235e-06
-3.32971e-06
-3.34836e-06
-3.41239e-06
-3.3749e-06
-3.37652e-06
-3.62115e-06
-3.13327e-06
-3.29892e-06
-3.5706e-06
-3.56867e-06
-3.66775e-06
-3.47449e-06
-3.42788e-06
-3.413e-06
-3.65489e-06
-3.30182e-06
-3.28703e-06
-3.42163e-06
-3.57425e-06
-3.55111e-06
-3.42577e-06
-3.47422e-06
-3.39028e-06
-3.67503e-06
-3.53198e-06
-3.52299e-06
-3.47324e-06
-3.34605e-06
-3.53683e-06
-3.56931e-06
-3.54495e-06
-3.46573e-06
-3.31491e-06
-3.32645e-06
-3.4169e-06
-3.51574e-06
-3.42639e-06
-3.75613e-06
-3.28055e-06
-3.46081e-06
-3.47152e-06
-3.33674e-06
-3.33359e-06
-3.36973e-06
-3.35497e-06
-3.54377e-06
-3.71858e-06
-3.65852e-06
-3.46942e-06
-3.40546e-06
-3.37705e-06
-3.32933e-06
-3.34364e-06
-3.51896e-06
-3.55537e-06
-3.66522e-06
-3.39906e-06
-3.45468e-06
-3.43902e-06
-3.49379e-06
-3.58759e-06
-3.48513e-06
-3.44527e-06
-3.33625e-06
-3.58829e-06
-3.57062e-06
-3.613e-06
-3.51751e-06
-3.42182e-06
-3.46736e-06
-3.60314e-06
-3.50761e-06
-3.45936e-06
-3.35293e-06
-3.2616e-06
-3.44815e-06
-3.60652e-06
-3.73277e-06
-3.62261e-06
-3.57819e-06
-3.42047e-06
-3.49193e-06
-3.42355e-06
-3.45612e-06
-3.47834e-06
-3.43238e-06
-3.45444e-06
-3.37718e-06
-3.39152e-06
-3.21503e-06
-3.40575e-06
-3.11117e-06
-3.47921e-06
-3.47963e-06
-3.41344e-06
-3.32982e-06
-3.30505e-06
-3.73132e-06
-3.64488e-06
-3.33245e-06
-3.39757e-06
-3.45762e-06
-3.47529e-06
-3.65409e-06
-3.61105e-06
-3.44278e-06
-3.43581e-06
-3.38343e-06
-3.34865e-06
-3.67928e-06
-3.53913e-06
-3.32227e-06
-3.61421e-06
-3.54803e-06
-3.34497e-06
-3.62711e-06
-3.55259e-06
-3.52873e-06
-3.65445e-06
-3.42545e-06
-3.40782e-06
-3.41226e-06
-3.4358e-06
-3.59817e-06
-3.46341e-06
-3.62876e-06
-3.51628e-06
-3.39271e-06
-3.34837e-06
-3.44894e-06
-3.36254e-06
-3.28755e-06
-3.55934e-06
-3.42728e-06
-3.46539e-06
-3.44782e-06
-3.49773e-06
-3.36459e-06
-3.45926e-06
-3.46974e-06
-3.36973e-06
-3.42923e-06
-3.50629e-06
-3.36309e-06
-3.50664e-06
-3.41786e-06
-3.39685e-06
-3.39736e-06
-3.31914e-06
-3.39577e-06
-3.4687e-06
-3.34455e-06
-3.20435e-06
-3.38519e-06
-3.39184e-06
-3.33888e-06
-3.44923e-06
-3.67529e-06
-3.45439e-06
-3.37989e-06
-3.25101e-06
-3.38223e-06
-3.45706e-06
-3.58742e-06
-3.46199e-06
-3.72904e-06
-3.52017e-06
-3.52475e-06
-3.61265e-06
-3.47023e-06
-3.24471e-06
-3.35116e-06
-3.46236e-06
-3.46451e-06
-3.38839e-06
-3.39712e-06
-3.41972e-06
-3.43883e-06
-3.23698e-06
-3.14892e-06
-3.33442e-06
-3.44457e-06
-3.70211e-06
-3.25776e-06
-3.47702e-06
-3.51762e-06
-3.44093e-06
-3.34266e-06
-3.26741e-06
-3.53695e-06
-3.3546e-06
-3.50538e-06
-3.50892e-06
-3.5368e-06
-3.34203e-06
-3.48906e-06
-3.74329e-06
-3.42303e-06
-3.47373e-06
-3.4616e-06
-3.48563e-06
-3.68162e-06
-3.48669e-06
-3.40226e-06
-3.61679e-06
-3.36545e-06
-3.37932e-06
-3.39969e-06
-3.50494e-06
-3.24579e-06
-3.28172e-06
-3.66606e-06
-3.30745e-06
-3.2977e-06
-3.45139e-06
-3.45772e-06
-3.4458e-06
-3.61093e-06
-3.43653e-06
-3.46372e-06
-3.18584e-06
-3.3548e-06
-3.43301e-06
-3.33676e-06
-3.42628e-06
-3.57838e-06
-3.38698e-06
-3.44738e-06
-3.36439e-06
-3.52539e-06
-3.444e-06
-3.42195e-06
-3.3183e-06
-3.54645e-06
-3.31275e-06
-3.4938e-06
-3.54407e-06
-3.38265e-06
-3.26599e-06
-3.50629e-06
-3.37435e-06
-3.43982e-06
-3.41114e-06
-3.65204e-06
-3.54517e-06
-3.45478e-06
-3.4674e-06
-3.46581e-06
-3.33945e-06
-3.41845e-06
-3.36558e-06
-3.38723e-06
-3.39831e-06
-3.33926e-06
-3.35987e-06
-3.4047e-06
-3.43124e-06
-3.42034e-06
-3.49976e-06
-3.38106e-06
-3.23719e-06
-3.38828e-06
-3.45047e-06
-3.69006e-06
-3.51422e-06
-3.46647e-06
-3.63215e-06
-3.68632e-06
-3.51635e-06
-3.4744e-06
-3.34666e-06
-3.39018e-06
-3.4716e-06
-3.43574e-06
-3.38967e-06
-3.37993e-06
-3.38267e-06
-3.49659e-06
-3.52295e-06
-3.36313e-06
-3.58685e-06
-3.71266e-06
-3.43834e-06
-3.54893e-06
-3.51326e-06
-3.29885e-06
-3.3943e-06
-3.45343e-06
-3.49419e-06
-3.3195e-06
-3.40025e-06
-3.48683e-06
-3.50232e-06
-3.3498e-06
-3.43907e-06
-3.40039e-06
-3.27646e-06
-3.36468e-06
-3.4535e-06
-3.63915e-06
-3.55586e-06
-3.58425e-06
-3.24933e-06
-3.515e-06
-3.45578e-06
-3.28787e-06
-3.54377e-06
-3.38947e-06
-3.26434e-06
-3.4752e-06
-3.48571e-06
-3.47779e-06
-3.36129e-06
-3.5292e-06
-3.37123e-06
-3.41728e-06
-3.47334e-06
-3.49406e-06
-3.27521e-06
-3.22646e-06
-3.52886e-06
-3.36313e-06
-3.47221e-06
-3.47572e-06
-3.69261e-06
-3.53157e-06
-3.50561e-06
-3.55349e-06
-3.57624e-06
-3.54731e-06
-3.41916e-06
-3.28545e-06
-3.50551e-06
-3.42934e-06
-3.46466e-06
-3.53244e-06
-3.55298e-06
-3.31481e-06
-3.43982e-06
-3.41315e-06
-3.47018e-06
-3.40433e-06
-3.42936e-06
-3.35535e-06
-3.57524e-06
-3.5303e-06
-3.50579e-06
-3.42312e-06
-3.46313e-06
-3.52345e-06
-3.43471e-06
-3.45474e-06
-3.37173e-06
-3.33923e-06
-3.55948e-06
-3.44398e-06
-3.41484e-06
-3.54686e-06
-3.45703e-06
-3.2542e-06
-3.48598e-06
-3.38146e-06
-3.35244e-06
-3.43975e-06
-3.534e-06
-3.49793e-06
-3.41796e-06
-3.32707e-06
-3.39087e-06
-3.24966e-06
-3.46029e-06
-3.67919e-06
-3.39201e-06
-3.43359e-06
-3.48943e-06
-3.48545e-06
-3.57837e-06
-3.6139e-06
-3.39886e-06
-3.47761e-06
-3.40887e-06
-3.38659e-06
-3.47448e-06
-3.64815e-06
-3.46291e-06
-3.5664e-06
-3.56355e-06
-3.45109e-06
-3.52588e-06
-3.28097e-06
-3.55263e-06
-3.46272e-06
-3.34003e-06
-3.56224e-06
-3.52558e-06
-3.21208e-06
-3.35244e-06
-3.2344e-06
-3.47559e-06
-3.2834e-06
-3.46949e-06
-3.35554e-06
-3.59588e-06
-3.56208e-06
-3.38173e-06
-3.48579e-06
-3.44496e-06
-3.52342e-06
-3.33188e-06
-3.33318e-06
-3.34087e-06
-3.47347e-06
-3.4037e-06
-3.40581e-06
-3.25861e-06
-3.60762e-06
-3.48668e-06
-3.44939e-06
-3.30955e-06
-3.39216e-06
-3.41909e-06
-3.43579e-06
-3.37049e-06
-3.47613e-06
-3.68198e-06
-3.5987e-06
-3.4599e-06
-3.60125e-06
-3.46928e-06
-3.47749e-06
-3.46304e-06
-3.29019e-06
-3.60242e-06
-3.3996e-06
-3.35799e-06
-3.40245e-06
-3.43955e-06
-3.47018e-06
-3.44181e-06
-3.45262e-06
-3.35886e-06
-3.20717e-06
-3.50985e-06
-3.53733e-06
-3.48339e-06
-3.66289e-06
-3.53497e-06
-3.4317e-06
-3.34074e-06
-3.48844e-06
-3.54749e-06
-3.54864e-06
-3.62826e-06
-3.36666e-06
-3.54253e-06
-3.33679e-06
-3.36348e-06
-3.52741e-06
-3.37291e-06
-3.38842e-06
-3.46155e-06
-3.53697e-06
-3.29404e-06
-3.31096e-06
-3.41206e-06
-3.28177e-06
-3.57789e-06
-3.59561e-06
-3.36076e-06
-3.38521e-06
-3.53549e-06
-3.39124e-06
-3.45957e-06
-3.52764e-06
-3.60407e-06
-3.61899e-06
-3.60725e-06
-3.34801e-06
-3.3484e-06
-3.46969e-06
-3.65748e-06
-3.51977e-06
-3.62396e-06
-3.54423e-06
-3.68944e-06
-3.58418e-06
-3.34529e-06
-3.24853e-06
-3.35889e-06
-3.41068e-06
-3.36128e-06
-3.32297e-06
-3.39251e-06
-3.368e-06
-3.59888e-06
-3.61704e-06
-3.40442e-06
-3.22011e-06
-3.37927e-06
-3.36769e-06
-3.33862e-06
-3.43098e-06
-3.39193e-06
-3.38799e-06
-3.53241e-06
-3.41847e-06
-3.4243e-06
-3.37893e-06
-3.6769e-06
-3.458e-06
-3.41963e-06
-3.26234e-06
-3.37832e-06
-3.29996e-06
-3.22483e-06
-3.25626e-06
-3.41059e-06
-3.26772e-06
-3.50774e-06
-3.65608e-06
-3.46375e-06
-3.30545e-06
-3.36598e-06
-3.41552e-06
-3.14868e-06
-3.4321e-06
-3.61336e-06
-3.39752e-06
-3.46355e-06
-3.45658e-06
-3.4656e-06
-3.61341e-06
-3.6461e-06
-3.29016e-06
-3.47938e-06
-3.49245e-06
-3.45262e-06
-3.29229e-06
-3.41861e-06
-3.30903e-06
-3.41446e-06
-3.51757e-06
-3.45672e-06
-3.37202e-06
-3.60246e-06
-3.61047e-06
-3.48529e-06
-3.40598e-06
-3.35577e-06
-3.50745e-06
-3.2981e-06
-3.51845e-06
-3.3388e-06
-3.44513e-06
-3.358e-06
-3.37232e-06
-3.42505e-06
-3.32837e-06
-3.40939e-06
-3.48059e-06
-3.48805e-06
-3.42809e-06
-3.28889e-06
-3.5943e-06
-3.16316e-06
-3.44819e-06
-3.52169e-06
-3.58932e-06
-3.48385e-06
-3.46085e-06
-3.53332e-06
-3.58336e-06
-3.52829e-06
-3.60961e-06
-3.46049e-06
-3.38408e-06
-3.54574e-06
-3.47806e-06
-3.43246e-06
-3.41278e-06
-3.34879e-06
-3.64915e-06
-3.53986e-06
-3.49649e-06
-3.58503e-06
-3.48962e-06
-3.36141e-06
-3.45278e-06
-3.26297e-06
-3.36925e-06
-3.50877e-06
-3.46786e-06
-3.3984e-06
-3.77477e-06
-3.59065e-06
-3.51923e-06
-3.25697e-06
-3.43395e-06
-3.27164e-06
-3.45354e-06
-3.51158e-06
-3.22061e-06
-3.32751e-06
-3.41824e-06
-3.4042e-06
-3.48062e-06
-3.34981e-06
-3.30809e-06
-3.33296e-06
-3.44555e-06
-3.39811e-06
-3.46008e-06
-3.4544e-06
-3.45779e-06
-3.26617e-06
-3.3624e-06
-3.29041e-06
-3.50622e-06
-3.49032e-06
-3.56415e-06
-3.42826e-06
-3.41508e-06
-3.58025e-06
-3.52353e-06
-3.36745e-06
-3.29713e-06
-3.48018e-06
-3.32267e-06
-3.22595e-06
-3.28512e-06
-3.4226e-06
-3.51036e-06
-3.4604e-06
-3.39109e-06
-3.45336e-06
-3.41861e-06
-3.31692e-06
-3.39531e-06
-3.54581e-06
-3.41008e-06
-3.36638e-06
-3.49542e-06
-3.34873e-06
-3.43623e-06
-3.35853e-06
-3.33886e-06
-3.44846e-06
-3.27618e-06
-3.3869e-06
-3.34481e-06
-3.35786e-06
-3.2133e-06
-3.47182e-06
-3.50711e-06
-3.41701e-06
-3.59242e-06
-3.39589e-06
-3.32283e-06
-3.3112e-06
-3.44174e-06
-3.46531e-06
-3.76145e-06
-3.33059e-06
-3.27166e-06
-3.60031e-06
-3.3544e-06
-3.42841e-06
-3.45605e-06
-3.68189e-06
-3.55026e-06
-3.4494e-06
-3.49394e-06
-3.34759e-06
-3.43737e-06
-3.35329e-06
-3.58303e-06
-3.51487e-06
-3.37775e-06
-3.47146e-06
-3.25382e-06
-3.5836e-06
-3.67495e-06
-3.52748e-06
-3.4938e-06
-3.49094e-06
-3.49693e-06
-3.37286e-06
-3.24443e-06
-3.4897e-06
-3.65546e-06
-3.62165e-06
-3.64672e-06
-3.48907e-06
-3.68428e-06
-3.45032e-06
-3.44984e-06
-3.26995e-06
-3.41913e-06