# vtk DataFile Version 2.0
3D Surface
ASCII
DATASET UNSTRUCTURED_GRID
POINTS 15867 float
-1.2e-05 -1.225e-05 -1.0662e-05 
-1.2e-05 -1.2e-05 -1.06513e-05 
-1.225e-05 -1.225e-05 -1.06471e-05 
-1.225e-05 -1.2e-05 -1.06471e-05 
-1.175e-05 -1.225e-05 -1.06662e-05 
-1.175e-05 -1.2e-05 -1.06504e-05 
-1.15e-05 -1.225e-05 -1.06529e-05 
-1.15e-05 -1.2e-05 -1.06445e-05 
-1.125e-05 -1.225e-05 -1.06599e-05 
-1.125e-05 -1.2e-05 -1.0655e-05 
-1.1e-05 -1.225e-05 -1.06656e-05 
-1.1e-05 -1.2e-05 -1.06589e-05 
-1.075e-05 -1.225e-05 -1.0667e-05 
-1.075e-05 -1.2e-05 -1.06568e-05 
-1.05e-05 -1.225e-05 -1.06569e-05 
-1.05e-05 -1.2e-05 -1.06562e-05 
-1.025e-05 -1.225e-05 -1.06568e-05 
-1.025e-05 -1.2e-05 -1.06598e-05 
-1e-05 -1.225e-05 -1.06559e-05 
-1e-05 -1.2e-05 -1.06562e-05 
-9.75e-06 -1.225e-05 -1.0646e-05 
-9.75e-06 -1.2e-05 -1.06484e-05 
-9.5e-06 -1.225e-05 -1.06481e-05 
-9.5e-06 -1.2e-05 -1.06497e-05 
-9.25e-06 -1.225e-05 -1.0652e-05 
-9.25e-06 -1.2e-05 -1.06521e-05 
-9e-06 -1.225e-05 -1.06541e-05 
-9e-06 -1.2e-05 -1.06553e-05 
-8.75e-06 -1.225e-05 -1.06488e-05 
-8.75e-06 -1.2e-05 -1.06568e-05 
-8.5e-06 -1.225e-05 -1.06571e-05 
-8.5e-06 -1.2e-05 -1.06637e-05 
-8.25e-06 -1.225e-05 -1.06609e-05 
-8.25e-06 -1.2e-05 -1.06577e-05 
-8e-06 -1.225e-05 -1.06615e-05 
-8e-06 -1.2e-05 -1.06623e-05 
-7.75e-06 -1.225e-05 -1.06678e-05 
-7.75e-06 -1.2e-05 -1.06647e-05 
-7.5e-06 -1.225e-05 -1.06476e-05 
-7.5e-06 -1.2e-05 -1.06527e-05 
-7.25e-06 -1.225e-05 -1.06445e-05 
-7.25e-06 -1.2e-05 -1.0656e-05 
-7e-06 -1.225e-05 -1.06597e-05 
-7e-06 -1.2e-05 -1.06673e-05 
-6.75e-06 -1.225e-05 -1.06511e-05 
-6.75e-06 -1.2e-05 -1.06618e-05 
-6.5e-06 -1.225e-05 -1.06478e-05 
-6.5e-06 -1.2e-05 -1.06517e-05 
-6.25e-06 -1.225e-05 -1.065e-05 
-6.25e-06 -1.2e-05 -1.06623e-05 
-6e-06 -1.225e-05 -1.06467e-05 
-6e-06 -1.2e-05 -1.06574e-05 
-5.75e-06 -1.225e-05 -1.06535e-05 
-5.75e-06 -1.2e-05 -1.06582e-05 
-5.5e-06 -1.225e-05 -1.06693e-05 
-5.5e-06 -1.2e-05 -1.06609e-05 
-5.25e-06 -1.225e-05 -1.06566e-05 
-5.25e-06 -1.2e-05 -1.06703e-05 
-5e-06 -1.225e-05 -1.06539e-05 
-5e-06 -1.2e-05 -1.06581e-05 
-4.75e-06 -1.225e-05 -1.06642e-05 
-4.75e-06 -1.2e-05 -1.06576e-05 
-4.5e-06 -1.225e-05 -1.06742e-05 
-4.5e-06 -1.2e-05 -1.06624e-05 
-4.25e-06 -1.225e-05 -1.06638e-05 
-4.25e-06 -1.2e-05 -1.06527e-05 
-4e-06 -1.225e-05 -1.0661e-05 
-4e-06 -1.2e-05 -1.06565e-05 
-3.75e-06 -1.225e-05 -1.06526e-05 
-3.75e-06 -1.2e-05 -1.06481e-05 
-3.5e-06 -1.225e-05 -1.06473e-05 
-3.5e-06 -1.2e-05 -1.06538e-05 
-3.25e-06 -1.225e-05 -1.0646e-05 
-3.25e-06 -1.2e-05 -1.06649e-05 
-3e-06 -1.225e-05 -1.06576e-05 
-3e-06 -1.2e-05 -1.06596e-05 
-2.75e-06 -1.225e-05 -1.06633e-05 
-2.75e-06 -1.2e-05 -1.06556e-05 
-2.5e-06 -1.225e-05 -1.06552e-05 
-2.5e-06 -1.2e-05 -1.06617e-05 
-2.25e-06 -1.225e-05 -1.06603e-05 
-2.25e-06 -1.2e-05 -1.06624e-05 
-2e-06 -1.225e-05 -1.06639e-05 
-2e-06 -1.2e-05 -1.06625e-05 
-1.75e-06 -1.225e-05 -1.06557e-05 
-1.75e-06 -1.2e-05 -1.06568e-05 
-1.5e-06 -1.225e-05 -1.06525e-05 
-1.5e-06 -1.2e-05 -1.06592e-05 
-1.25e-06 -1.225e-05 -1.06572e-05 
-1.25e-06 -1.2e-05 -1.06645e-05 
-1e-06 -1.225e-05 -1.06656e-05 
-1e-06 -1.2e-05 -1.06572e-05 
-7.5e-07 -1.225e-05 -1.06588e-05 
-7.5e-07 -1.2e-05 -1.06548e-05 
-5e-07 -1.225e-05 -1.0662e-05 
-5e-07 -1.2e-05 -1.06596e-05 
-2.5e-07 -1.225e-05 -1.06526e-05 
-2.5e-07 -1.2e-05 -1.06639e-05 
0 -1.225e-05 -1.06535e-05 
0 -1.2e-05 -1.06535e-05 
2.5e-07 -1.225e-05 -1.06466e-05 
2.5e-07 -1.2e-05 -1.06485e-05 
5e-07 -1.225e-05 -1.0653e-05 
5e-07 -1.2e-05 -1.06456e-05 
7.5e-07 -1.225e-05 -1.06568e-05 
7.5e-07 -1.2e-05 -1.06462e-05 
1e-06 -1.225e-05 -1.06551e-05 
1e-06 -1.2e-05 -1.06547e-05 
1.25e-06 -1.225e-05 -1.06581e-05 
1.25e-06 -1.2e-05 -1.06643e-05 
1.5e-06 -1.225e-05 -1.06651e-05 
1.5e-06 -1.2e-05 -1.06635e-05 
1.75e-06 -1.225e-05 -1.0652e-05 
1.75e-06 -1.2e-05 -1.0658e-05 
2e-06 -1.225e-05 -1.06633e-05 
2e-06 -1.2e-05 -1.06631e-05 
2.25e-06 -1.225e-05 -1.06587e-05 
2.25e-06 -1.2e-05 -1.06578e-05 
2.5e-06 -1.225e-05 -1.06552e-05 
2.5e-06 -1.2e-05 -1.06566e-05 
2.75e-06 -1.225e-05 -1.06489e-05 
2.75e-06 -1.2e-05 -1.0657e-05 
3e-06 -1.225e-05 -1.06509e-05 
3e-06 -1.2e-05 -1.06513e-05 
3.25e-06 -1.225e-05 -1.06532e-05 
3.25e-06 -1.2e-05 -1.06478e-05 
3.5e-06 -1.225e-05 -1.06517e-05 
3.5e-06 -1.2e-05 -1.06562e-05 
3.75e-06 -1.225e-05 -1.06684e-05 
3.75e-06 -1.2e-05 -1.06556e-05 
4e-06 -1.225e-05 -1.06574e-05 
4e-06 -1.2e-05 -1.06548e-05 
4.25e-06 -1.225e-05 -1.06459e-05 
4.25e-06 -1.2e-05 -1.06617e-05 
4.5e-06 -1.225e-05 -1.06485e-05 
4.5e-06 -1.2e-05 -1.06516e-05 
4.75e-06 -1.225e-05 -1.066e-05 
4.75e-06 -1.2e-05 -1.06496e-05 
5e-06 -1.225e-05 -1.06608e-05 
5e-06 -1.2e-05 -1.06554e-05 
5.25e-06 -1.225e-05 -1.06672e-05 
5.25e-06 -1.2e-05 -1.06552e-05 
5.5e-06 -1.225e-05 -1.06604e-05 
5.5e-06 -1.2e-05 -1.06631e-05 
5.75e-06 -1.225e-05 -1.06508e-05 
5.75e-06 -1.2e-05 -1.06582e-05 
6e-06 -1.225e-05 -1.06582e-05 
6e-06 -1.2e-05 -1.06506e-05 
6.25e-06 -1.225e-05 -1.06626e-05 
6.25e-06 -1.2e-05 -1.0655e-05 
6.5e-06 -1.225e-05 -1.06638e-05 
6.5e-06 -1.2e-05 -1.06612e-05 
6.75e-06 -1.225e-05 -1.06547e-05 
6.75e-06 -1.2e-05 -1.06696e-05 
7e-06 -1.225e-05 -1.06504e-05 
7e-06 -1.2e-05 -1.06593e-05 
7.25e-06 -1.225e-05 -1.06549e-05 
7.25e-06 -1.2e-05 -1.06611e-05 
7.5e-06 -1.225e-05 -1.06561e-05 
7.5e-06 -1.2e-05 -1.06599e-05 
7.75e-06 -1.225e-05 -1.06642e-05 
7.75e-06 -1.2e-05 -1.06538e-05 
8e-06 -1.225e-05 -1.06531e-05 
8e-06 -1.2e-05 -1.06459e-05 
8.25e-06 -1.225e-05 -1.06606e-05 
8.25e-06 -1.2e-05 -1.06597e-05 
8.5e-06 -1.225e-05 -1.06584e-05 
8.5e-06 -1.2e-05 -1.06479e-05 
8.75e-06 -1.225e-05 -1.06576e-05 
8.75e-06 -1.2e-05 -1.06555e-05 
9e-06 -1.225e-05 -1.06652e-05 
9e-06 -1.2e-05 -1.06578e-05 
9.25e-06 -1.225e-05 -1.06569e-05 
9.25e-06 -1.2e-05 -1.06646e-05 
9.5e-06 -1.225e-05 -1.06576e-05 
9.5e-06 -1.2e-05 -1.06528e-05 
9.75e-06 -1.225e-05 -1.0664e-05 
9.75e-06 -1.2e-05 -1.0659e-05 
1e-05 -1.225e-05 -1.06513e-05 
1e-05 -1.2e-05 -1.0649e-05 
1.025e-05 -1.225e-05 -1.06601e-05 
1.025e-05 -1.2e-05 -1.06501e-05 
1.05e-05 -1.225e-05 -1.06596e-05 
1.05e-05 -1.2e-05 -1.06458e-05 
1.075e-05 -1.225e-05 -1.06549e-05 
1.075e-05 -1.2e-05 -1.06492e-05 
1.1e-05 -1.225e-05 -1.06567e-05 
1.1e-05 -1.2e-05 -1.06598e-05 
1.125e-05 -1.225e-05 -1.06534e-05 
1.125e-05 -1.2e-05 -1.06518e-05 
1.15e-05 -1.225e-05 -1.06728e-05 
1.15e-05 -1.2e-05 -1.06585e-05 
1.175e-05 -1.225e-05 -1.06684e-05 
1.175e-05 -1.2e-05 -1.06595e-05 
1.2e-05 -1.225e-05 -1.06513e-05 
1.2e-05 -1.2e-05 -1.06496e-05 
1.225e-05 -1.225e-05 -1.06471e-05 
1.225e-05 -1.2e-05 -1.06471e-05 
-1.2e-05 -1.175e-05 -1.06554e-05 
-1.225e-05 -1.175e-05 -1.06521e-05 
-1.175e-05 -1.175e-05 -1.06483e-05 
-1.15e-05 -1.175e-05 -1.06478e-05 
-1.125e-05 -1.175e-05 -1.06469e-05 
-1.1e-05 -1.175e-05 -1.06505e-05 
-1.075e-05 -1.175e-05 -1.06487e-05 
-1.05e-05 -1.175e-05 -1.06573e-05 
-1.025e-05 -1.175e-05 -1.06481e-05 
-1e-05 -1.175e-05 -1.06559e-05 
-9.75e-06 -1.175e-05 -1.06579e-05 
-9.5e-06 -1.175e-05 -1.06509e-05 
-9.25e-06 -1.175e-05 -1.0653e-05 
-9e-06 -1.175e-05 -1.06551e-05 
-8.75e-06 -1.175e-05 -1.0652e-05 
-8.5e-06 -1.175e-05 -1.06533e-05 
-8.25e-06 -1.175e-05 -1.06528e-05 
-8e-06 -1.175e-05 -1.06574e-05 
-7.75e-06 -1.175e-05 -1.06614e-05 
-7.5e-06 -1.175e-05 -1.0665e-05 
-7.25e-06 -1.175e-05 -1.06691e-05 
-7e-06 -1.175e-05 -1.06587e-05 
-6.75e-06 -1.175e-05 -1.06558e-05 
-6.5e-06 -1.175e-05 -1.06555e-05 
-6.25e-06 -1.175e-05 -1.0675e-05 
-6e-06 -1.175e-05 -1.06528e-05 
-5.75e-06 -1.175e-05 -1.06505e-05 
-5.5e-06 -1.175e-05 -1.06545e-05 
-5.25e-06 -1.175e-05 -1.06607e-05 
-5e-06 -1.175e-05 -1.06463e-05 
-4.75e-06 -1.175e-05 -1.06666e-05 
-4.5e-06 -1.175e-05 -1.06498e-05 
-4.25e-06 -1.175e-05 -1.06517e-05 
-4e-06 -1.175e-05 -1.06523e-05 
-3.75e-06 -1.175e-05 -1.06522e-05 
-3.5e-06 -1.175e-05 -1.06577e-05 
-3.25e-06 -1.175e-05 -1.06666e-05 
-3e-06 -1.175e-05 -1.06558e-05 
-2.75e-06 -1.175e-05 -1.06476e-05 
-2.5e-06 -1.175e-05 -1.06468e-05 
-2.25e-06 -1.175e-05 -1.06514e-05 
-2e-06 -1.175e-05 -1.06623e-05 
-1.75e-06 -1.175e-05 -1.06591e-05 
-1.5e-06 -1.175e-05 -1.06523e-05 
-1.25e-06 -1.175e-05 -1.06655e-05 
-1e-06 -1.175e-05 -1.06516e-05 
-7.5e-07 -1.175e-05 -1.06446e-05 
-5e-07 -1.175e-05 -1.06495e-05 
-2.5e-07 -1.175e-05 -1.06653e-05 
0 -1.175e-05 -1.06633e-05 
2.5e-07 -1.175e-05 -1.06645e-05 
5e-07 -1.175e-05 -1.06448e-05 
7.5e-07 -1.175e-05 -1.06516e-05 
1e-06 -1.175e-05 -1.0664e-05 
1.25e-06 -1.175e-05 -1.06476e-05 
1.5e-06 -1.175e-05 -1.06541e-05 
1.75e-06 -1.175e-05 -1.06605e-05 
2e-06 -1.175e-05 -1.06588e-05 
2.25e-06 -1.175e-05 -1.06539e-05 
2.5e-06 -1.175e-05 -1.06525e-05 
2.75e-06 -1.175e-05 -1.06576e-05 
3e-06 -1.175e-05 -1.0649e-05 
3.25e-06 -1.175e-05 -1.06575e-05 
3.5e-06 -1.175e-05 -1.0665e-05 
3.75e-06 -1.175e-05 -1.06542e-05 
4e-06 -1.175e-05 -1.06471e-05 
4.25e-06 -1.175e-05 -1.06614e-05 
4.5e-06 -1.175e-05 -1.06551e-05 
4.75e-06 -1.175e-05 -1.06597e-05 
5e-06 -1.175e-05 -1.0665e-05 
5.25e-06 -1.175e-05 -1.0659e-05 
5.5e-06 -1.175e-05 -1.06495e-05 
5.75e-06 -1.175e-05 -1.06552e-05 
6e-06 -1.175e-05 -1.06616e-05 
6.25e-06 -1.175e-05 -1.066e-05 
6.5e-06 -1.175e-05 -1.06538e-05 
6.75e-06 -1.175e-05 -1.06656e-05 
7e-06 -1.175e-05 -1.06564e-05 
7.25e-06 -1.175e-05 -1.0655e-05 
7.5e-06 -1.175e-05 -1.06734e-05 
7.75e-06 -1.175e-05 -1.0665e-05 
8e-06 -1.175e-05 -1.06675e-05 
8.25e-06 -1.175e-05 -1.06619e-05 
8.5e-06 -1.175e-05 -1.06545e-05 
8.75e-06 -1.175e-05 -1.06583e-05 
9e-06 -1.175e-05 -1.06576e-05 
9.25e-06 -1.175e-05 -1.06589e-05 
9.5e-06 -1.175e-05 -1.06491e-05 
9.75e-06 -1.175e-05 -1.06637e-05 
1e-05 -1.175e-05 -1.06554e-05 
1.025e-05 -1.175e-05 -1.06556e-05 
1.05e-05 -1.175e-05 -1.06502e-05 
1.075e-05 -1.175e-05 -1.06605e-05 
1.1e-05 -1.175e-05 -1.0663e-05 
1.125e-05 -1.175e-05 -1.06583e-05 
1.15e-05 -1.175e-05 -1.06594e-05 
1.175e-05 -1.175e-05 -1.06586e-05 
1.2e-05 -1.175e-05 -1.06535e-05 
1.225e-05 -1.175e-05 -1.06521e-05 
-1.2e-05 -1.15e-05 -1.06617e-05 
-1.225e-05 -1.15e-05 -1.06575e-05 
-1.175e-05 -1.15e-05 -1.06554e-05 
-1.15e-05 -1.15e-05 -1.06494e-05 
[...]
POINT_DATA 15867
SCALARS Velocities float 1
LOOKUP_TABLE default
-3.41796e-06
-3.39479e-06
-3.48186e-06
-3.3524e-06
-3.49024e-06
-3.41846e-06
-3.64488e-06
-3.41097e-06
-3.40969e-06
-3.47946e-06
-3.45998e-06
-3.52532e-06
-3.49058e-06
-3.56718e-06
-3.48548e-06
-3.54107e-06
-3.53661e-06
-3.33992e-06
-3.31845e-06
-3.27525e-06
-3.1572e-06
-3.29756e-06
-3.42183e-06
-3.37695e-06
-3.46108e-06
-3.21574e-06
-3.3805e-06
-3.62091e-06
-3.44606e-06
-3.46408e-06
-3.67772e-06
-3.34498e-06
-3.61623e-06
-3.36858e-06
-3.41782e-06
-3.27972e-06
-3.43239e-06
-3.24857e-06
-3.49696e-06
-3.4484e-06
-3.38303e-06
-3.40862e-06
-3.54438e-06
-3.33627e-06
-3.63561e-06
-3.32083e-06
-3.39893e-06
-3.48212e-06
-3.50492e-06
-3.59195e-06
-3.5414e-06
-3.38588e-06
-3.76376e-06
-3.21156e-06
-3.68799e-06
-3.64517e-06
-3.39344e-06
-3.6017e-06
-3.13957e-06
-3.42373e-06
-3.11685e-06
-3.41652e-06
-3.36061e-06
-3.37297e-06
-3.33279e-06
-3.29346e-06
-3.4668e-06
-3.3928e-06
-3.40336e-06
-3.51934e-06
-3.15408e-06
-3.33327e-06
-3.42408e-06
-3.58892e-06
-3.56646e-06
-3.50092e-06
-3.42284e-06
-3.33368e-06
-3.26968e-06
-3.54084e-06
-3.4233e-06
-3.4315e-06
-3.47205e-06
-3.43422e-06
-3.63015e-06
-3.80406e-06
-3.48831e-06
-3.51274e-06
-3.3785e-06
-3.38485e-06
-3.30093e-06
-3.49518e-06
-3.2906e-06
-3.37589e-06
-3.57081e-06
-3.46222e-06
-3.57229e-06
-3.69518e-06
-3.4157e-06
-3.7002e-06
-3.42253e-06
-3.76307e-06
-3.62748e-06
-3.61021e-06
-3.44262e-06
-3.41593e-06
-3.57479e-06
-3.3936e-06
-3.51574e-06
-3.49491e-06
-3.50428e-06
-3.49335e-06
-3.33506e-06
-3.50281e-06
-3.37125e-06
-3.50809e-06
-3.40474e-06
-3.31058e-06
-3.44588e-06
-3.3567e-06
-3.31846e-06
-3.43945e-06
-3.52032e-06
-3.50978e-06
-3.51948e-06
-3.54038e-06
-3.41681e-06
-3.34115e-06
-3.27508e-06
-3.45787e-06
-3.27004e-06
-3.31518e-06
-3.49582e-06
-3.43888e-06
-3.46751e-06
-3.39068e-06
-3.44315e-06
-3.45183e-06
-3.25881e-06
-3.37567e-06
-3.40453e-06
-3.52578e-06
-3.41216e-06
-3.44675e-06
-3.42935e-06
-3.35563e-06
-3.46671e-06
-3.58728e-06
-3.35341e-06
-3.49826e-06
-3.52701e-06
-3.54609e-06
-3.50528e-06
-3.19628e-06
-3.46316e-06
-3.45151e-06
-3.44007e-06
-3.58499e-06
-3.39574e-06
-3.35362e-06
-3.4463e-06
-3.37979e-06
-3.69651e-06
-3.48525e-06
-3.63538e-06
-3.33418e-06
-3.81229e-06
-3.5521e-06
-3.82303e-06
-3.52936e-06
-3.65336e-06
-3.48793e-06
-3.39799e-06
-3.317e-06
-3.21452e-06
-3.53695e-06
-3.30817e-06
-3.42442e-06
-3.45218e-06
-3.4825e-06
-3.52461e-06
-3.53714e-06
-3.45504e-06
-3.38843e-06
-3.52592e-06
-3.59876e-06
-3.49509e-06
-3.68052e-06
-3.40515e-06
-3.48027e-06
-3.27946e-06
-3.38923e-06
-3.29415e-06
-3.38775e-06
-3.4731e-06
-3.4069e-06
-3.48186e-06
-3.3524e-06
-3.68665e-06
-3.44589e-06
-3.53002e-06
-3.41402e-06
-3.43809e-06
-3.40625e-06
-3.32732e-06
-3.44526e-06
-3.38122e-06
-3.45164e-06
-3.66886e-06
-3.57462e-06
-3.44442e-06
-3.47398e-06
-3.34402e-06
-3.28441e-06
-3.24325e-06
-3.39017e-06
-3.34151e-06
-3.49981e-06
-3.58845e-06
-3.44138e-06
-3.59273e-06
-3.34531e-06
-3.49088e-06
-3.5134e-06
-3.32973e-06
-3.46946e-06
-3.46882e-06
-3.39052e-06
-3.36855e-06
-3.48066e-06
-3.49712e-06
-3.56566e-06
-3.53523e-06
-3.45306e-06
-3.35706e-06
-3.37317e-06
-3.45985e-06
-3.64118e-06
-3.61635e-06
-3.68565e-06
-3.57218e-06
-3.50906e-06
-3.34884e-06
-3.38375e-06
-3.50389e-06
-3.51215e-06
-3.51229e-06
-3.30664e-06
-3.63051e-06
-3.73132e-06
-3.56264e-06
-3.35302e-06
-3.59572e-06
-3.47507e-06
-3.40982e-06
-3.34845e-06
-3.39762e-06
-3.51445e-06
-3.50725e-06
-3.52318e-06
-3.74489e-06
-3.31957e-06
-3.32962e-06
-3.24266e-06
-3.48998e-06
-3.38395e-06
-3.51005e-06
-3.42275e-06
-3.32969e-06
-3.44622e-06
-3.51939e-06
-3.547e-06
-3.52308e-06
-3.62602e-06
-3.39164e-06
-3.36882e-06
-3.50033e-06
-3.53023e-06
-3.59258e-06
-3.35055e-06
-3.34468e-06
-3.32111e-06
-3.40717e-06
-3.37726e-06
-3.30404e-06
-3.53125e-06
-3.28798e-06
-3.28346e-06
-3.53204e-06
-3.47323e-06
-3.49388e-06
-3.56154e-06
-3.49731e-06
-3.37443e-06
-3.39016e-06
-3.34568e-06
-3.44589e-06
-3.56573e-06
-3.26383e-06
-3.4054e-06
-3.51439e-06
-3.56231e-06
-3.38567e-06
-3.43745e-06
-3.5133e-06
-3.48939e-06
-3.56301e-06
-3.48759e-06
-3.52714e-06
-3.33863e-06
-3.23125e-06
-3.48156e-06
-3.39424e-06
-3.47353e-06
-3.55572e-06
-3.39066e-06
-3.22911e-06
-3.30488e-06
-3.38333e-06
-3.32478e-06
-3.38911e-06
-3.4733e-06
-3.57754e-06
-3.40301e-06
-3.35722e-06
-3.38462e-06
-3.40607e-06
-3.30314e-06
-3.5403e-06
-3.63915e-06
-3.51326e-06
-3.43993e-06
-3.47067e-06
-3.44272e-06
-3.53515e-06
-3.51369e-06
-3.5671e-06
-3.44657e-06
-3.38681e-06
-3.46742e-06
-3.52883e-06
-3.28095e-06
-3.35669e-06
-3.6768e-06
-3.3491e-06
-3.4521e-06
-3.24833e-06
-3.36613e-06
-3.67373e-06
-3.38791e-06
-3.48609e-06
-3.41853e-06
-3.40793e-06
-3.32675e-06
-3.3374e-06
-3.45174e-06
-3.6228e-06
-3.52601e-06
-3.406e-06
-3.51851e-06
-3.63383e-06
-3.25757e-06
-3.30602e-06
-3.62212e-06
-3.42381e-06
-3.61429e-06
-3.39643e-06
-3.31101e-06
-3.26866e-06
-3.50217e-06
-3.29602e-06
-3.12357e-06
-3.22449e-06
-3.36071e-06
-3.23547e-06
-3.49231e-06
-3.54307e-06
-3.42799e-06
-3.27455e-06
-3.24581e-06
-3.32816e-06
-3.6931e-06
-3.47986e-06
-3.56132e-06
-3.32049e-06
-3.29198e-06
-3.45323e-06
-3.42638e-06
-3.51969e-06
-3.55441e-06
-3.5895e-06
-3.44749e-06
-3.3786e-06
-3.32161e-06
-3.15626e-06
-3.26383e-06
-3.50547e-06
-3.29213e-06
-3.37074e-06
-3.58919e-06
-3.50866e-06
-3.49719e-06
-3.56829e-06
-3.61383e-06
-3.56171e-06
-3.40309e-06
-3.3476e-06
-3.24574e-06
-3.31863e-06
-3.42655e-06
-3.49609e-06
-3.40294e-06
-3.55946e-06
-3.42783e-06
-3.4747e-06
-3.4269e-06
-3.38777e-06
-3.46942e-06
-3.26738e-06
-3.34636e-06
-3.45634e-06
-3.43286e-06
-3.48439e-06
-3.49646e-06
-3.21914e-06
-3.36684e-06
-3.47271e-06
-3.28247e-06
-3.55286e-06
-3.52899e-06
-3.5858e-06
-3.37428e-06
-3.36013e-06
-3.3897e-06
-3.53341e-06
-3.41303e-06
-3.33475e-06
-3.53452e-06
-3.30258e-06
-3.31084e-06
-3.44739e-06
-3.48132e-06
-3.35859e-06
-3.34252e-06
-3.27871e-06
-3.37685e-06
-3.60522e-06
-3.60027e-06
-3.43299e-06
-3.34272e-06
-3.24541e-06
-3.37605e-06
-3.51324e-06
-3.66794e-06
-3.65493e-06
-3.48824e-06
-3.42803e-06
-3.5683e-06
-3.45527e-06
-3.48651e-06
-3.44722e-06
-3.46962e-06
-3.56522e-06
-3.47568e-06
-3.59219e-06
-3.30099e-06
-3.56258e-06
-3.52916e-06
-3.69984e-06
-3.41692e-06
-3.30011e-06
-3.26329e-06
-3.23913e-06
-3.49511e-06
-3.62811e-06
-3.63015e-06
-3.51415e-06
-3.27888e-06
-3.27379e-06
-3.21424e-06
-3.59527e-06
-3.56467e-06
-3.53541e-06
-3.62431e-06
-3.57847e-06
-3.32829e-06
-3.47033e-06
-3.52801e-06
-3.4618e-06
-3.37214e-06
-3.27972e-06
-3.5945e-06
-3.65357e-06
-3.44797e-06
-3.29213e-06
-3.48649e-06
-3.32202e-06
-3.44761e-06
-3.49474e-06
-3.31127e-06
-3.41976e-06
-3.49306e-06
-3.5891e-06
-3.56079e-06
-3.37288e-06
-3.32221e-06
-3.42431e-06
-3.23151e-06
-3.40754e-06
-3.45939e-06
-3.54788e-06
-3.4865e-06
-3.4255e-06
-3.50846e-06
-3.61326e-06
-3.36687e-06
-3.52134e-06
-3.28877e-06
-3.40413e-06
-3.55215e-06
-3.38515e-06
-3.26192e-06
-3.30048e-06
-3.04836e-06
-3.12444e-06
-3.30999e-06
-3.12727e-06
-3.35048e-06
-3.50269e-06
-3.50858e-06
-3.47916e-06
-3.31662e-06
-3.33385e-06
-3.25301e-06
-3.20917e-06
-3.26254e-06
-3.54039e-06
-3.29406e-06
-3.33911e-06
-3.33908e-06
-3.35346e-06
-3.50858e-06
-3.5127e-06
-3.5212e-06
-3.45942e-06
-3.47115e-06
-3.48487e-06
-3.54448e-06
-3.4456e-06
-3.67638e-06
-3.37681e-06
-3.60428e-06
-3.43899e-06
-3.57248e-06
-3.35118e-06
-3.40799e-06
-3.61486e-06
-3.46554e-06
-3.46505e-06
-3.4129e-06
-3.49635e-06
-3.47237e-06
-3.27052e-06
-3.36482e-06
-3.2179e-06
-3.39269e-06
-3.60146e-06
-3.65493e-06
-3.30535e-06
-3.31554e-06
-3.39836e-06
-3.41415e-06
-3.54443e-06
-3.73812e-06
-3.55583e-06
-3.30957e-06
-3.25445e-06
-3.4455e-06
-3.32441e-06
-3.43575e-06
-3.3852e-06
-3.62601e-06
-3.5614e-06
-3.39979e-06
-3.10716e-06
-3.38966e-06
-3.33473e-06
-3.29533e-06
-3.41448e-06
-3.40058e-06
-3.36941e-06
-3.49415e-06
-3.63259e-06
-3.32202e-06
-3.59085e-06
-3.49915e-06
-3.42328e-06
-3.37557e-06
-3.4408e-06
-3.35863e-06
-3.40043e-06
-3.40691e-06
-3.48389e-06
-3.55535e-06
-3.71717e-06
-3.71456e-06
-3.5413e-06
-3.37503e-06
-3.55232e-06
-3.45256e-06
-3.33724e-06
-3.347e-06
-3.38804e-06
-3.62961e-06
-3.50301e-06
-3.67405e-06
-3.57386e-06
-3.58637e-06
-3.3471e-06
-3.51186e-06
-3.55344e-06
-3.51959e-06
-3.40186e-06
-3.37606e-06
-3.49543e-06
-3.20647e-06
-3.50561e-06
-3.60405e-06
-3.53404e-06
-3.41597e-06
-3.40886e-06
-3.39413e-06
-3.28229e-06
-3.24557e-06
-3.38691e-06
-3.3848e-06
-3.37329e-06
-3.44506e-06
-3.41785e-06
-3.4028e-06
-3.50635e-06
-3.58423e-06
-3.61922e-06
-3.42264e-06
-3.4229e-06
-3.29818e-06
-3.51639e-06
-3.63066e-06
-3.52862e-06
-3.40925e-06
-3.57931e-06
-3.47228e-06
-3.42501e-06
-3.3978e-06
-3.51801e-06
-3.38589e-06
-3.39839e-06
-3.50665e-06
-3.542e-06
-3.43437e-06
-3.47335e-06
-3.53799e-06
-3.45809e-06
-3.5666e-06
-3.42681e-06
-3.50051e-06
-3.53056e-06
-3.14696e-06
-3.38403e-06
-3.40014e-06
-3.34093e-06
-3.42877e-06
-3.31894e-06
-3.36458e-06
-3.53564e-06
-3.30534e-06
-3.43879e-06
-3.5386e-06
-3.57867e-06
-3.57545e-06
-3.5383e-06
-3.44195e-06
-3.41392e-06
-3.31259e-06
-3.31909e-06
-3.33e-06
-3.29031e-06
-3.42149e-06
-3.34756e-06
-3.44873e-06
-3.35044e-06
-3.47068e-06
-3.49915e-06
-3.42902e-06
-3.52098e-06
-3.43301e-06
-3.28635e-06
-3.48335e-06
-3.40684e-06
-3.2843e-06
-3.41377e-06
-3.45755e-06
-3.34972e-06
-3.34593e-06
-3.36188e-06
-3.39799e-06
-3.51556e-06
-3.3978e-06
-3.30977e-06
-3.50633e-06
-3.54232e-06
-3.43016e-06
-3.27707e-06
-3.29133e-06
-3.50243e-06
-3.38669e-06
-3.47168e-06
-3.52534e-06
-3.48915e-06
-3.54834e-06
-3.70452e-06
-3.41551e-06
-3.19826e-06
-3.36334e-06
-3.62565e-06
-3.62621e-06
-3.32842e-06
-3.32262e-06
-3.3431e-06
-3.47087e-06
-3.60523e-06
-3.37469e-06
-3.35738e-06
-3.51696e-06
-3.5737e-06
-3.57929e-06
-3.45005e-06
-3.42014e-06
-3.66515e-06
-3.45079e-06
-3.57022e-06
-3.31231e-06
-3.39851e-06
-3.44009e-06
-3.24622e-06
-3.27623e-06
-3.49745e-06
-3.23243e-06
-3.5268e-06
-3.31603e-06
-3.42254e-06
-3.60998e-06
-3.50023e-06
-3.25091e-06
-3.3678e-06
-3.43531e-06
-3.49082e-06
-3.60557e-06
-3.46375e-06
-3.39513e-06
-3.54085e-06
-3.37645e-06
-3.4159e-06
-3.53214e-06
-3.74067e-06
-3.7763e-06
-3.57278e-06
-3.56638e-06
-3.48908e-06
-3.47237e-06
-3.43338e-06
-3.33344e-06
-3.45281e-06
-3.51854e-06
-3.30306e-06
-3.33273e-06
-3.53722e-06
-3.53801e-06
-3.35231e-06
-3.45817e-06
-3.4739e-06
-3.62122e-06
-3.48942e-06
-3.34871e-06
-3.33503e-06
-3.47631e-06
-3.57511e-06
-3.45424e-06
-3.42595e-06
-3.4979e-06
-3.41639e-06
-3.52098e-06
-3.36324e-06
-3.51229e-06
-3.53735e-06
-3.37471e-06
-3.42971e-06
-3.5048e-06
-3.35211e-06
-3.39069e-06
-3.50871e-06
-3.27838e-06
-3.19567e-06
-3.16078e-06
-3.23787e-06
-3.13623e-06
-3.2802e-06
-3.28243e-06
-3.4071e-06
-3.34335e-06
-3.59669e-06
-3.52255e-06
-3.36375e-06
-3.46837e-06
-3.32591e-06
-3.63061e-06
-3.58341e-06
-3.4752e-06
-3.35731e-06
-3.39291e-06
-3.44205e-06
-3.27547e-06
-3.42176e-06
-3.5401e-06
-3.41907e-06
-3.2642e-06
-3.53933e-06
-3.30574e-06
-3.42973e-06
-3.39156e-06
-3.43718e-06
-3.24055e-06
-3.36989e-06
-3.34985e-06
-3.58212e-06
-3.37979e-06
-3.51365e-06
-3.67869e-06
-3.4269e-06
-3.30535e-06
-3.29487e-06
-3.35831e-06
-3.36426e-06
-3.53078e-06
-3.3895e-06
-3.47827e-06
-3.20301e-06
-3.56068e-06
-3.48603e-06
-3.41542e-06
-3.6487e-06
-3.43444e-06
-3.33178e-06
-3.52001e-06
-3.53376e-06
-3.47258e-06
-3.60108e-06
-3.71191e-06
-3.72697e-06
-3.58636e-06
-3.39965e-06
-3.43153e-06
-3.56008e-06
-3.43803e-06
-3.45351e-06
-3.4478e-06
-3.47011e-06
-3.48687e-06
-3.52486e-06
-3.64399e-06
-3.62438e-06
-3.70854e-06
-3.35638e-06
-3.45182e-06
-3.71963e-06
-3.58348e-06
-3.59128e-06
-3.31822e-06
-3.3156e-06
-3.53063e-06
-3.40833e-06
-3.34114e-06
-3.38901e-06
-3.09798e-06
-3.24893e-06
-3.33031e-06
-3.68151e-06
-3.33433e-06
-3.32609e-06
-3.47265e-06
-3.51229e-06
-3.48199e-06
-3.34017e-06
-3.38163e-06
-3.42266e-06
-3.53357e-06
-3.33325e-06
-3.53342e-06
-3.70699e-06
-3.5079e-06
-3.39623e-06
-3.35408e-06
-3.75306e-06
-3.58317e-06
-3.37814e-06
-3.34462e-06
-3.50062e-06
-3.47324e-06
-3.36711e-06
-3.42434e-06
-3.39271e-06
-3.57869e-06
-3.54342e-06
-3.24356e-06
-3.55197e-06
-3.41122e-06
-3.37657e-06
-3.32683e-06
-3.34428e-06
-3.59613e-06
-3.28581e-06
-3.3318e-06
-3.53696e-06
-3.68509e-06
-3.57621e-06
-3.52294e-06
-3.3179e-06
-3.39328e-06
-3.43827e-06
-3.45759e-06
-3.36781e-06
-3.22077e-06
-3.25614e-06
-3.27867e-06
-3.16718e-06
-3.49097e-06
-3.45177e-06
-3.39292e-06
-3.43609e-06
-3.38007e-06
-3.57131e-06
-3.43788e-06
-3.55496e-06
-3.42522e-06
-3.40691e-06
-3.38858e-06
-3.62904e-06
-3.56609e-06
-3.49062e-06
-3.44577e-06
-3.41739e-06
-3.33301e-06
-3.40826e-06
-3.48003e-06
-3.38721e-06
-3.50846e-06
-3.5541e-06
-3.42967e-06
-3.38798e-06
-3.5829e-06
-3.44605e-06
-3.56346e-06
-3.39408e-06
-3.39119e-06
-3.4364e-06
-3.31069e-06
-3.41179e-06
-3.4817e-06
-3.44164e-06
-3.48458e-06
-3.47783e-06
-3.50592e-06
-3.37909e-06
-3.58995e-06
-3.46678e-06
-3.38293e-06
-3.36017e-06
-3.40371e-06
-3.63712e-06
-3.62991e-06
-3.45734e-06
-3.54976e-06
-3.48115e-06
-3.404e-06
-3.43047e-06
-3.63317e-06
-3.5506e-06
-3.41162e-06
-3.3477e-06
-3.34017e-06
-3.65988e-06
-3.48434e-06
-3.62681e-06
-3.39379e-06
-3.39186e-06
-3.44599e-06
-3.51507e-06
-3.4636e-06
-3.6084e-06
-3.47794e-06
-3.51176e-06
-3.57994e-06
-3.55374e-06
-3.70502e-06
-3.40506e-06
-3.57393e-06
-3.52599e-06
-3.42108e-06
-3.29699e-06
-3.27253e-06
-3.18199e-06
-3.6922e-06
-3.5352e-06
-3.29327e-06
-3.4403e-06
-3.39299e-06
-3.28059e-06
-3.48638e-06
-3.66245e-06
-3.14403e-06
-3.33181e-06
-3.38221e-06
-3.73182e-06
-3.52446e-06
-3.58459e-06
-3.52319e-06
-3.42159e-06
-3.56187e-06
-3.35082e-06
-3.40834e-06
-3.45526e-06
-3.36417e-06
-3.47048e-06
-3.51788e-06
-3.37032e-06
-3.61511e-06
-3.58943e-06
-3.67844e-06
-3.50584e-06
-3.4365e-06
-3.43541e-06
-3.40752e-06
-3.41486e-06
-3.4143e-06
-3.40685e-06
-3.51584e-06
-3.51446e-06
-3.43532e-06
-3.49616e-06
-3.3966e-06
-3.39124e-06
-3.49949e-06
-3.42635e-06
-3.47978e-06
-3.37713e-06
-3.62672e-06
-3.48148e-06
-3.38729e-06
-3.49979e-06
-3.31464e-06
-3.49427e-06
-3.46626e-06
-3.20506e-06
-3.15255e-06
-3.39276e-06
-3.47835e-06
-3.47826e-06
-3.28752e-06
-3.36838e-06
-3.40484e-06
-3.44387e-06
-3.33885e-06
-3.46008e-06
-3.33657e-06
-3.43081e-06
-3.48904e-06
-3.43434e-06
-3.6082e-06
-3.49875e-06
-3.45048e-06
-3.51067e-06
-3.7274e-06
-3.51394e-06
-3.46452e-06
-3.41916e-06
-3.45453e-06
-3.44908e-06
-3.42199e-06
-3.48434e-06
-3.67218e-06
-3.54476e-06
-3.46213e-06
-3.27017e-06
-3.18849e-06
-3.39714e-06
-3.32498e-06
-3.24928e-06
-3.53923e-06
-3.72063e-06
-3.43118e-06
-3.41165e-06
-3.291e-06
-3.37356e-06
-3.42438e-06
-3.43129e-06
-3.72481e-06
-3.2607e-06
-3.31268e-06
-3.44447e-06
-3.30622e-06
-3.58153e-06
-3.74065e-06
-3.37601e-06
-3.53049e-06
-3.59112e-06
-3.43892e-06
-3.50314e-06
-3.58843e-06
-3.43421e-06
-3.43536e-06
-3.43651e-06
-3.46426e-06
-3.50386e-06
-3.50726e-06
-3.29929e-06
-3.49202e-06
-3.50568e-06
-3.26372e-06
-3.19057e-06
-3.44057e-06
-3.38225e-06
-3.53274e-06
-3.70476e-06
-3.4783e-06
-3.52609e-06
-3.63202e-06
-3.50227e-06
-3.46015e-06
-3.45256e-06
-3.4793e-06
-3.44207e-06
-3.43516e-06
-3.62761e-06
-3.48166e-06
-3.5225e-06
-3.41486e-06
-3.33269e-06
-3.49697e-06
-3.45343e-06
-3.6163e-06
-3.70546e-06
-3.55288e-06
-3.41016e-06
-3.53026e-06
-3.54402e-06
-3.62603e-06
-3.62471e-06
-3.52511e-06
-3.5371e-06
-3.66335e-06
-3.55944e-06
-3.40609e-06
-3.23709e-06
-3.20133e-06
-3.6696e-06
-3.41241e-06
-3.47536e-06
-3.46004e-06
-3.36653e-06
-3.27286e-06
-3.49743e-06
-3.53609e-06
-3.46874e-06
-3.63287e-06
-3.46306e-06
-3.40001e-06
-3.38888e-06
-3.4334e-06
-3.60978e-06
-3.3904e-06
-3.63758e-06
-3.75899e-06
-3.68651e-06
-3.35591e-06
-3.2445e-06
-3.3956e-06
-3.5788e-06
-3.54476e-06
-3.53819e-06
-3.30366e-06
-3.35928e-06
-3.31488e-06
-3.27968e-06
-3.45229e-06
-3.44717e-06
-3.53362e-06
-3.67376e-06
-3.65122e-06
-3.43938e-06
-3.37335e-06
-3.29342e-06
-3.32218e-06
-3.54985e-06
-3.5584e-06
-3.51946e-06
-3.33006e-06
-3.44302e-06
-3.65017e-06
-3.46218e-06
-3.44066e-06
-3.49607e-06
-3.44433e-06
-3.43071e-06
-3.56951e-06
-3.58853e-06
-3.28254e-06
-3.50594e-06
-3.2361e-06
-3.32129e-06
-3.65517e-06
-3.57072e-06
-3.56908e-06
-3.55801e-06
-3.37174e-06
-3.41633e-06
-3.53584e-06
-3.4651e-06
-3.39886e-06
-3.35117e-06
-3.42004e-06
-3.52041e-06
-3.57677e-06
-3.22845e-06
-3.45878e-06
-3.66503e-06
-3.46677e-06
-3.44705e-06
-3.48827e-06
-3.53734e-06
-3.30727e-06
-3.42078e-06
-3.30728e-06
-3.62259e-06
-3.53079e-06
-3.43822e-06
-3.50972e-06
-3.37385e-06
-3.42348e-06
-3.57559e-06
-3.62899e-06
-3.51198e-06
-3.44733e-06
-3.33288e-06
-3.46219e-06
-3.33541e-06
-3.45719e-06
-3.32532e-06
-3.41142e-06
-3.61239e-06
-3.37895e-06
-3.4057e-06
-3.18723e-06
-3.31613e-06
-3.62008e-06
-3.51642e-06
-3.53812e-06
-3.45545e-06
-3.70593e-06
-3.56035e-06
-3.45513e-06
-3.37603e-06
-3.49048e-06
-3.72143e-06
-3.2221e-06
-3.24742e-06
-3.35027e-06
-3.35841e-06
-3.65816e-06
-3.43433e-06
-3.40355e-06
-3.36811e-06
-3.39294e-06
-3.51295e-06
-3.37208e-06
-3.39999e-06
-3.80565e-06
-3.30366e-06
-3.47979e-06
-3.42762e-06
-3.52571e-06
-3.61633e-06
-3.51772e-06
-3.60038e-06
-3.57444e-06
-3.42082e-06
-3.47149e-06
-3.52101e-06
-3.41489e-06
-3.43526e-06
-3.44327e-06
-3.30007e-06
-3.36895e-06
-3.26617e-06
-3.25604e-06
-3.37155e-06
-3.3208e-06
-3.35997e-06
-3.29845e-06
-3.41227e-06
-3.67462e-06
-3.30481e-06
-3.58203e-06
-3.48917e-06
-3.65656e-06
-3.59138e-06
-3.52746e-06
-3.49593e-06
-3.30743e-06
-3.34572e-06
-3.5291e-06
-3.22822e-06
-3.4807e-06
-3.41609e-06
-3.46018e-06
-3.62656e-06
-3.41461e-06
-3.44921e-06
-3.56628e-06
-3.5476e-06
-3.63857e-06
-3.42148e-06
-3.63266e-06
-3.41668e-06
-3.36872e-06
-3.41859e-06
-3.32046e-06
-3.44964e-06
-3.47407e-06
-3.31922e-06
-3.43237e-06
-3.32355e-06
-3.63831e-06
-3.41262e-06
-3.44718e-06
-3.35052e-06
-3.39838e-06
-3.36618e-06
-3.54032e-06
-3.38838e-06
-3.48863e-06
-3.56572e-06
-3.25684e-06
-3.55696e-06
-3.28336e-06
-3.36281e-06
-3.44637e-06
-3.5669e-06
-3.56524e-06
-3.45801e-06
-3.65081e-06
-3.59271e-06
-3.24171e-06
-3.20657e-06
-3.5348e-06
-3.50075e-06
-3.25611e-06
-3.32484e-06
-3.40031e-06
-3.45944e-06
-3.4239e-06
-3.34427e-06
-3.42432e-06
-3.2533e-06
-3.45936e-06
-3.32616e-06
-3.49115e-06
-3.6651e-06
-3.37992e-06
-3.40145e-06
-3.45768e-06
-3.29081e-06
-3.35928e-06
-3.41306e-06
-3.41573e-06
-3.40393e-06
-3.42762e-06
-3.42306e-06
-3.51825e-06
-3.54029e-06
-3.4217e-06
-3.28477e-06
-3.5316e-06
-3.61695e-06
-3.22799e-06
-3.42343e-06
-3.44425e-06
-3.64323e-06
-3.36757e-06
-3.3196e-06
-3.42778e-06
-3.59645e-06
-3.56934e-06
-3.28217e-06
-3.33626e-06
-3.50383e-06
-3.31693e-06
-3.51861e-06
-3.50896e-06
-3.4919e-06
-3.34074e-06
-3.52729e-06
-3.59302e-06
-3.41427e-06
-3.66742e-06
-3.37706e-06
-3.34175e-06
-3.31767e-06
-3.25709e-06
-3.23829e-06
-3.35125e-06
-3.66181e-06
-3.3241e-06
-3.44251e-06
-3.43973e-06
-3.5361e-06
-3.38641e-06
-3.30366e-06
-3.44793e-06
-3.78904e-06
-3.51035e-06
-3.55741e-06
-3.30792e-06
-3.31113e-06
-3.36176e-06
-3.3713e-06
-3.26056e-06
-3.31299e-06
-3.11948e-06
-3.41031e-06
-3.19466e-06
-3.45556e-06
-3.51735e-06
-3.34229e-06
-3.45241e-06
-3.70473e-06
-3.48574e-06
-3.59508e-06
-3.36095e-06
-3.33583e-06
-3.44284e-06
-3.36703e-06
-3.46729e-06
-3.48756e-06
-3.59231e-06
-3.27431e-06
-3.39748e-06
-3.25046e-06
-3.28805e-06
-3.47812e-06
-3.5143e-06
-3.57121e-06
-3.3262e-06
-3.31132e-06
-3.48829e-06
-3.27323e-06
-3.53477e-06
-3.49127e-06
-3.41137e-06
-3.33189e-06
-3.31295e-06
-3.49556e-06
-3.32421e-06
-3.53899e-06
-3.3875e-06
-3.41144e-06
-3.54864e-06
-3.41592e-06
-3.59722e-06
-3.43362e-06
-3.4565e-06
-3.4949e-06
-3.31949e-06
-3.24842e-06
-3.38195e-06
-3.51825e-06
-3.35065e-06
-3.36698e-06
-3.37626e-06
-3.30479e-06
-3.4501e-06
-3.44796e-06
-3.60088e-06
-3.38293e-06
-3.57628e-06
-3.398e-06
-3.53615e-06
-3.30234e-06
-3.31969e-06
-3.27156e-06
-3.63248e-06
-3.36585e-06
-3.29992e-06
-3.67685e-06
-3.5663e-06
-3.41606e-06
-3.48343e-06
-3.37721e-06
-3.33343e-06
-3.32972e-06
-3.5162e-06
-3.58961e-06
-3.52389e-06
-3.51367e-06
-3.35508e-06
-3.44295e-06
-3.55034e-06
-3.44691e-06
-3.50988e-06
-3.42565e-06
-3.56753e-06
-3.35998e-06
-3.45386e-06
-3.52473e-06
-3.67854e-06
-3.26844e-06
-3.27313e-06
-3.4911e-06
-3.46356e-06
-3.30157e-06
-3.39868e-06
-3.51702e-06
-3.69361e-06
-3.44889e-06
-3.50944e-06
-3.39311e-06
-3.40927e-06
-3.38578e-06
-3.73038e-06
-3.5852e-06
-3.64141e-06
-3.37397e-06
-3.29864e-06
-3.28909e-06
-3.34271e-06
-3.45343e-06
-3.45268e-06