# vtk DataFile Version 2.0
2D Surface
ASCII
DATASET UNSTRUCTURED_GRID
POINTS 11 float
0 1.45895 0. 
1 1.45895 0. 
2 1.45895 0. 
3 1.45895 0. 
4 1.45895 0. 
5 1.45895 0. 
6 1.45895 0. 
7 1.45895 0. 
8 1.45895 0. 
9 1.45895 0. 
10 1.45895 0. 
CELLS 10 30
2 0 1 
2 1 2 
2 2 3 
2 3 4 
2 4 5 
2 5 6 
2 6 7 
2 7 8 
2 8 9 
2 9 10 
CELL_TYPES 10
3
3
3
3
3
3
3
3
3
3
POINT_DATA 11
SCALARS Velocities float 1
LOOKUP_TABLE default
0.215016
0.215016
0.215016
0.215016
0.215016
0.215016
0.215016
0.215016
0.215016
0.215016
0.215016
SCALARS Coverage0 float 1
LOOKUP_TABLE default
0.296765
0.296765
0.296765
0.296765
0.296765
0.296765
0.296765
0.296765
0.296765
0.296765
0.296765
SCALARS Coverage1 float 1
LOOKUP_TABLE default
0.089025
0.089025
0.089025
0.089025
0.089025
0.089025
0.089025
0.089025
0.089025
0.089025
0.089025
SCALARS Coverage2 float 1
LOOKUP_TABLE default
0.0909582
0.0909582
0.0909582
0.0909582
0.0909582
0.0909582
0.0909582
0.0909582
0.0909582
0.0909582
0.0909582
SCALARS Coverage3 float 1
LOOKUP_TABLE default
0.6317
0.6317
0.6317
0.6317
0.6317
0.6317
0.6317
0.6317
0.6317
0.6317
0.6317
SCALARS Coverage4 float 1
LOOKUP_TABLE default
0.277341
0.277341
0.277341
0.277341
0.277341
0.277341
0.277341
0.277341
0.277341
0.277341
0.277341
SCALARS Coverage5 float 1
LOOKUP_TABLE default
0.496045
0.496045
0.496045
0.496045
0.496045
0.496045
0.496045
0.496045
0.496045
0.496045
0.496045
SCALARS Coverage6 float 1
LOOKUP_TABLE default
0.384778
0.384778
0.384778
0.384778
0.384778
0.384778
0.384778
0.384778
0.384778
0.384778
0.384778
SCALARS Coverage7 float 1
LOOKUP_TABLE default
0.649799
0.649799
0.649799
0.649799
0.649799
0.649799
0.649799
0.649799
0.649799
0.649799
0.649799
SCALARS Coverage8 float 1
LOOKUP_TABLE default
0.928466
0.928466
0.928466
0.928466
0.928466
0.928466
0.928466
0.928466
0.928466
0.928466
0.928466
SCALARS Coverage9 float 1
LOOKUP_TABLE default
0.00193321
0.00193321
0.00193321
0.00193321
0.00193321
0.00193321
0.00193321
0.00193321
0.00193321
0.00193321
0.00193321
SCALARS Coverage10 float 1
LOOKUP_TABLE default
0.069601
0.069601
0.069601
0.069601
0.069601
0.069601
0.069601
0.069601
0.069601
0.069601
0.069601
SCALARS Coverage11 float 1
LOOKUP_TABLE default
0.00210534
0.00210534
0.00210534
0.00210534
0.00210534
0.00210534
0.00210534
0.00210534
0.00210534
0.00210534
0.00210534
