# vtk DataFile Version 2.0
2D Surface
ASCII
DATASET UNSTRUCTURED_GRID
POINTS 11 float
0 1.19576 0. 
1 1.19576 0. 
2 1.19576 0. 
3 1.19576 0. 
4 1.19576 0. 
5 1.19576 0. 
6 1.19576 0. 
7 1.19576 0. 
8 1.19576 0. 
9 1.19576 0. 
10 1.19576 0. 
CELLS 10 30
2 0 1 
2 1 2 
2 2 3 
2 3 4 
2 4 5 
2 5 6 
2 6 7 
2 7 8 
2 8 9 
2 9 10 
CELL_TYPES 10
3
3
3
3
3
3
3
3
3
3
POINT_DATA 11
SCALARS Velocities float 1
LOOKUP_TABLE default
0.104511
0.104511
0.104511
0.104511
0.104511
0.104511
0.104511
0.104511
0.104511
0.104511
0.104511
SCALARS Coverage0 float 1
LOOKUP_TABLE default
0.64931
0.64931
0.64931
0.64931
0.64931
0.64931
0.64931
0.64931
0.64931
0.64931
0.64931
SCALARS Coverage1 float 1
LOOKUP_TABLE default
0.384765
0.384765
0.384765
0.384765
0.384765
0.384765
0.384765
0.384765
0.384765
0.384765
0.384765
SCALARS Coverage2 float 1
LOOKUP_TABLE default
0.386711
0.386711
0.386711
0.386711
0.386711
0.386711
0.386711
0.386711
0.386711
0.386711
0.386711
SCALARS Coverage3 float 1
LOOKUP_TABLE default
0.278667
0.278667
0.278667
0.278667
0.278667
0.278667
0.278667
0.278667
0.278667
0.278667
0.278667
SCALARS Coverage4 float 1
LOOKUP_TABLE default
0.334622
0.334622
0.334622
0.334622
0.334622
0.334622
0.334622
0.334622
0.334622
0.334622
0.334622
SCALARS Coverage5 float 1
LOOKUP_TABLE default
0.237486
0.237486
0.237486
0.237486
0.237486
0.237486
0.237486
0.237486
0.237486
0.237486
0.237486
SCALARS Coverage6 float 1
LOOKUP_TABLE default
0.376497
0.376497
0.376497
0.376497
0.376497
0.376497
0.376497
0.376497
0.376497
0.376497
0.376497
SCALARS Coverage7 float 1
LOOKUP_TABLE default
0.533258
0.533258
0.533258
0.533258
0.533258
0.533258
0.533258
0.533258
0.533258
0.533258
0.533258
SCALARS Coverage8 float 1
LOOKUP_TABLE default
0.811925
0.811925
0.811925
0.811925
0.811925
0.811925
0.811925
0.811925
0.811925
0.811925
0.811925
SCALARS Coverage9 float 1
LOOKUP_TABLE default
0.0102138
0.0102138
0.0102138
0.0102138
0.0102138
0.0102138
0.0102138
0.0102138
0.0102138
0.0102138
0.0102138
SCALARS Coverage10 float 1
LOOKUP_TABLE default
0.177861
0.177861
0.177861
0.177861
0.177861
0.177861
0.177861
0.177861
0.177861
0.177861
0.177861
SCALARS Coverage11 float 1
LOOKUP_TABLE default
0.015517
0.015517
0.015517
0.015517
0.015517
0.015517
0.015517
0.015517
0.015517
0.015517
0.015517
