# vtk DataFile Version 2.0
2D Surface
ASCII
DATASET UNSTRUCTURED_GRID
POINTS 11 float
0 4.25838 0. 
1 4.25838 0. 
2 4.25838 0. 
3 4.25838 0. 
4 4.25838 0. 
5 4.25838 0. 
6 4.25838 0. 
7 4.25838 0. 
8 4.25838 0. 
9 4.25838 0. 
10 4.25838 0. 
CELLS 10 30
2 0 1 
2 1 2 
2 2 3 
2 3 4 
2 4 5 
2 5 6 
2 6 7 
2 7 8 
2 8 9 
2 9 10 
CELL_TYPES 10
3
3
3
3
3
3
3
3
3
3
POINT_DATA 11
SCALARS Velocities float 1
LOOKUP_TABLE default
0.114304
0.114304
0.114304
0.114304
0.114304
0.114304
0.114304
0.114304
0.114304
0.114304
0.114304
SCALARS Coverage0 float 1
LOOKUP_TABLE default
0.649642
0.649642
0.649642
0.649642
0.649642
0.649642
0.649642
0.649642
0.649642
0.649642
0.649642
SCALARS Coverage1 float 1
LOOKUP_TABLE default
0.384576
0.384576
0.384576
0.384576
0.384576
0.384576
0.384576
0.384576
0.384576
0.384576
0.384576
SCALARS Coverage2 float 1
LOOKUP_TABLE default
0.386509
0.386509
0.386509
0.386509
0.386509
0.386509
0.386509
0.386509
0.386509
0.386509
0.386509
SCALARS Coverage3 float 1
LOOKUP_TABLE default
0.278837
0.278837
0.278837
0.278837
0.278837
0.278837
0.278837
0.278837
0.278837
0.278837
0.278837
SCALARS Coverage4 float 1
LOOKUP_TABLE default
0.334654
0.334654
0.334654
0.334654
0.334654
0.334654
0.334654
0.334654
0.334654
0.334654
0.334654
SCALARS Coverage5 float 1
LOOKUP_TABLE default
0.237617
0.237617
0.237617
0.237617
0.237617
0.237617
0.237617
0.237617
0.237617
0.237617
0.237617
SCALARS Coverage6 float 1
LOOKUP_TABLE default
0.336072
0.336072
0.336072
0.336072
0.336072
0.336072
0.336072
0.336072
0.336072
0.336072
0.336072
SCALARS Coverage7 float 1
LOOKUP_TABLE default
0.322555
0.322555
0.322555
0.322555
0.322555
0.322555
0.322555
0.322555
0.322555
0.322555
0.322555
SCALARS Coverage8 float 1
LOOKUP_TABLE default
0.601392
0.601392
0.601392
0.601392
0.601392
0.601392
0.601392
0.601392
0.601392
0.601392
0.601392
SCALARS Coverage9 float 1
LOOKUP_TABLE default
0.0504371
0.0504371
0.0504371
0.0504371
0.0504371
0.0504371
0.0504371
0.0504371
0.0504371
0.0504371
0.0504371
SCALARS Coverage10 float 1
LOOKUP_TABLE default
0.348171
0.348171
0.348171
0.348171
0.348171
0.348171
0.348171
0.348171
0.348171
0.348171
0.348171
SCALARS Coverage11 float 1
LOOKUP_TABLE default
0.105459
0.105459
0.105459
0.105459
0.105459
0.105459
0.105459
0.105459
0.105459
0.105459
0.105459
