# vtk DataFile Version 2.0
2D Surface
ASCII
DATASET UNSTRUCTURED_GRID
POINTS 11 float
0 1.61197 0. 
1 1.61197 0. 
2 1.61197 0. 
3 1.61197 0. 
4 1.61197 0. 
5 1.61197 0. 
6 1.61197 0. 
7 1.61197 0. 
8 1.61197 0. 
9 1.61197 0. 
10 1.61197 0. 
CELLS 10 30
2 0 1 
2 1 2 
2 2 3 
2 3 4 
2 4 5 
2 5 6 
2 6 7 
2 7 8 
2 8 9 
2 9 10 
CELL_TYPES 10
3
3
3
3
3
3
3
3
3
3
POINT_DATA 11
SCALARS Velocities float 1
LOOKUP_TABLE default
0.234351
0.234351
0.234351
0.234351
0.234351
0.234351
0.234351
0.234351
0.234351
0.234351
0.234351
SCALARS Coverage0 float 1
LOOKUP_TABLE default
0.649633
0.649633
0.649633
0.649633
0.649633
0.649633
0.649633
0.649633
0.649633
0.649633
0.649633
SCALARS Coverage1 float 1
LOOKUP_TABLE default
0.384581
0.384581
0.384581
0.384581
0.384581
0.384581
0.384581
0.384581
0.384581
0.384581
0.384581
SCALARS Coverage2 float 1
LOOKUP_TABLE default
0.386514
0.386514
0.386514
0.386514
0.386514
0.386514
0.386514
0.386514
0.386514
0.386514
0.386514
SCALARS Coverage3 float 1
LOOKUP_TABLE default
0.278832
0.278832
0.278832
0.278832
0.278832
0.278832
0.278832
0.278832
0.278832
0.278832
0.278832
SCALARS Coverage4 float 1
LOOKUP_TABLE default
0.334653
0.334653
0.334653
0.334653
0.334653
0.334653
0.334653
0.334653
0.334653
0.334653
0.334653
SCALARS Coverage5 float 1
LOOKUP_TABLE default
0.237613
0.237613
0.237613
0.237613
0.237613
0.237613
0.237613
0.237613
0.237613
0.237613
0.237613
SCALARS Coverage6 float 1
LOOKUP_TABLE default
1.21446e-06
1.21446e-06
1.21446e-06
1.21446e-06
1.21446e-06
1.21446e-06
1.21446e-06
1.21446e-06
1.21446e-06
1.21446e-06
1.21446e-06
SCALARS Coverage7 float 1
LOOKUP_TABLE default
3.22623e-07
3.22623e-07
3.22623e-07
3.22623e-07
3.22623e-07
3.22623e-07
3.22623e-07
3.22623e-07
3.22623e-07
3.22623e-07
3.22623e-07
SCALARS Coverage8 float 1
LOOKUP_TABLE default
0.278833
0.278833
0.278833
0.278833
0.278833
0.278833
0.278833
0.278833
0.278833
0.278833
0.278833
SCALARS Coverage9 float 1
LOOKUP_TABLE default
0.386513
0.386513
0.386513
0.386513
0.386513
0.386513
0.386513
0.386513
0.386513
0.386513
0.386513
SCALARS Coverage10 float 1
LOOKUP_TABLE default
0.334654
0.334654
0.334654
0.334654
0.334654
0.334654
0.334654
0.334654
0.334654
0.334654
0.334654
SCALARS Coverage11 float 1
LOOKUP_TABLE default
1.21446
1.21446
1.21446
1.21446
1.21446
1.21446
1.21446
1.21446
1.21446
1.21446
1.21446
