# vtk DataFile Version 2.0
2D Surface
ASCII
DATASET UNSTRUCTURED_GRID
POINTS 11 float
0 10.8661 0. 
1 10.8661 0. 
2 10.8661 0. 
3 10.8661 0. 
4 10.8661 0. 
5 10.8661 0. 
6 10.8661 0. 
7 10.8661 0. 
8 10.8661 0. 
9 10.8661 0. 
10 10.8661 0. 
CELLS 10 30
2 0 1 
2 1 2 
2 2 3 
2 3 4 
2 4 5 
2 5 6 
2 6 7 
2 7 8 
2 8 9 
2 9 10 
CELL_TYPES 10
3
3
3
3
3
3
3
3
3
3
POINT_DATA 11
SCALARS Velocities float 1
LOOKUP_TABLE default
0.265094
0.265094
0.265094
0.265094
0.265094
0.265094
0.265094
0.265094
0.265094
0.265094
0.265094
SCALARS Coverage0 float 1
LOOKUP_TABLE default
0.131143
0.131143
0.131143
0.131143
0.131143
0.131143
0.131143
0.131143
0.131143
0.131143
0.131143
SCALARS Coverage1 float 1
LOOKUP_TABLE default
0.0247095
0.0247095
0.0247095
0.0247095
0.0247095
0.0247095
0.0247095
0.0247095
0.0247095
0.0247095
0.0247095
SCALARS Coverage2 float 1
LOOKUP_TABLE default
0.0266424
0.0266424
0.0266424
0.0266424
0.0266424
0.0266424
0.0266424
0.0266424
0.0266424
0.0266424
0.0266424
SCALARS Coverage3 float 1
LOOKUP_TABLE default
0.797336
0.797336
0.797336
0.797336
0.797336
0.797336
0.797336
0.797336
0.797336
0.797336
0.797336
SCALARS Coverage4 float 1
LOOKUP_TABLE default
0.176021
0.176021
0.176021
0.176021
0.176021
0.176021
0.176021
0.176021
0.176021
0.176021
0.176021
SCALARS Coverage5 float 1
LOOKUP_TABLE default
0.6117
0.6117
0.6117
0.6117
0.6117
0.6117
0.6117
0.6117
0.6117
0.6117
0.6117
SCALARS Coverage6 float 1
LOOKUP_TABLE default
0.384576
0.384576
0.384576
0.384576
0.384576
0.384576
0.384576
0.384576
0.384576
0.384576
0.384576
SCALARS Coverage7 float 1
LOOKUP_TABLE default
0.649642
0.649642
0.649642
0.649642
0.649642
0.649642
0.649642
0.649642
0.649642
0.649642
0.649642
SCALARS Coverage8 float 1
LOOKUP_TABLE default
0.928479
0.928479
0.928479
0.928479
0.928479
0.928479
0.928479
0.928479
0.928479
0.928479
0.928479
SCALARS Coverage9 float 1
LOOKUP_TABLE default
0.00193285
0.00193285
0.00193285
0.00193285
0.00193285
0.00193285
0.00193285
0.00193285
0.00193285
0.00193285
0.00193285
SCALARS Coverage10 float 1
LOOKUP_TABLE default
0.0695881
0.0695881
0.0695881
0.0695881
0.0695881
0.0695881
0.0695881
0.0695881
0.0695881
0.0695881
0.0695881
SCALARS Coverage11 float 1
LOOKUP_TABLE default
0.00210487
0.00210487
0.00210487
0.00210487
0.00210487
0.00210487
0.00210487
0.00210487
0.00210487
0.00210487
0.00210487
