# vtk DataFile Version 2.0
2D Surface
ASCII
DATASET UNSTRUCTURED_GRID
POINTS 11 float
0 9.76443 0. 
1 9.76443 0. 
2 9.76443 0. 
3 9.76443 0. 
4 9.76443 0. 
5 9.76443 0. 
6 9.76443 0. 
7 9.76443 0. 
8 9.76443 0. 
9 9.76443 0. 
10 9.76443 0. 
CELLS 10 30
2 0 1 
2 1 2 
2 2 3 
2 3 4 
2 4 5 
2 5 6 
2 6 7 
2 7 8 
2 8 9 
2 9 10 
CELL_TYPES 10
3
3
3
3
3
3
3
3
3
3
POINT_DATA 11
SCALARS Velocities float 1
LOOKUP_TABLE default
0.150009
0.150009
0.150009
0.150009
0.150009
0.150009
0.150009
0.150009
0.150009
0.150009
0.150009
SCALARS Coverage0 float 1
LOOKUP_TABLE default
0.505261
0.505261
0.505261
0.505261
0.505261
0.505261
0.505261
0.505261
0.505261
0.505261
0.505261
SCALARS Coverage1 float 1
LOOKUP_TABLE default
0.231872
0.231872
0.231872
0.231872
0.231872
0.231872
0.231872
0.231872
0.231872
0.231872
0.231872
SCALARS Coverage2 float 1
LOOKUP_TABLE default
0.233805
0.233805
0.233805
0.233805
0.233805
0.233805
0.233805
0.233805
0.233805
0.233805
0.233805
SCALARS Coverage3 float 1
LOOKUP_TABLE default
0.423218
0.423218
0.423218
0.423218
0.423218
0.423218
0.423218
0.423218
0.423218
0.423218
0.423218
SCALARS Coverage4 float 1
LOOKUP_TABLE default
0.342977
0.342977
0.342977
0.342977
0.342977
0.342977
0.342977
0.342977
0.342977
0.342977
0.342977
SCALARS Coverage5 float 1
LOOKUP_TABLE default
0.345915
0.345915
0.345915
0.345915
0.345915
0.345915
0.345915
0.345915
0.345915
0.345915
0.345915
SCALARS Coverage6 float 1
LOOKUP_TABLE default
0.384576
0.384576
0.384576
0.384576
0.384576
0.384576
0.384576
0.384576
0.384576
0.384576
0.384576
SCALARS Coverage7 float 1
LOOKUP_TABLE default
0.649642
0.649642
0.649642
0.649642
0.649642
0.649642
0.649642
0.649642
0.649642
0.649642
0.649642
SCALARS Coverage8 float 1
LOOKUP_TABLE default
0.928479
0.928479
0.928479
0.928479
0.928479
0.928479
0.928479
0.928479
0.928479
0.928479
0.928479
SCALARS Coverage9 float 1
LOOKUP_TABLE default
0.00193285
0.00193285
0.00193285
0.00193285
0.00193285
0.00193285
0.00193285
0.00193285
0.00193285
0.00193285
0.00193285
SCALARS Coverage10 float 1
LOOKUP_TABLE default
0.0695881
0.0695881
0.0695881
0.0695881
0.0695881
0.0695881
0.0695881
0.0695881
0.0695881
0.0695881
0.0695881
SCALARS Coverage11 float 1
LOOKUP_TABLE default
0.00210487
0.00210487
0.00210487
0.00210487
0.00210487
0.00210487
0.00210487
0.00210487
0.00210487
0.00210487
0.00210487
