# vtk DataFile Version 2.0
2D Surface
ASCII
DATASET UNSTRUCTURED_GRID
POINTS 11 float
0 1.30972 0. 
1 1.30972 0. 
2 1.30972 0. 
3 1.30972 0. 
4 1.30972 0. 
5 1.30972 0. 
6 1.30972 0. 
7 1.30972 0. 
8 1.30972 0. 
9 1.30972 0. 
10 1.30972 0. 
CELLS 10 30
2 0 1 
2 1 2 
2 2 3 
2 3 4 
2 4 5 
2 5 6 
2 6 7 
2 7 8 
2 8 9 
2 9 10 
CELL_TYPES 10
3
3
3
3
3
3
3
3
3
3
POINT_DATA 11
SCALARS Velocities float 1
LOOKUP_TABLE default
0.103129
0.103129
0.103129
0.103129
0.103129
0.103129
0.103129
0.103129
0.103129
0.103129
0.103129
SCALARS Coverage0 float 1
LOOKUP_TABLE default
0.64931
0.64931
0.64931
0.64931
0.64931
0.64931
0.64931
0.64931
0.64931
0.64931
0.64931
SCALARS Coverage1 float 1
LOOKUP_TABLE default
0.384765
0.384765
0.384765
0.384765
0.384765
0.384765
0.384765
0.384765
0.384765
0.384765
0.384765
SCALARS Coverage2 float 1
LOOKUP_TABLE default
0.386711
0.386711
0.386711
0.386711
0.386711
0.386711
0.386711
0.386711
0.386711
0.386711
0.386711
SCALARS Coverage3 float 1
LOOKUP_TABLE default
0.278667
0.278667
0.278667
0.278667
0.278667
0.278667
0.278667
0.278667
0.278667
0.278667
0.278667
SCALARS Coverage4 float 1
LOOKUP_TABLE default
0.334622
0.334622
0.334622
0.334622
0.334622
0.334622
0.334622
0.334622
0.334622
0.334622
0.334622
SCALARS Coverage5 float 1
LOOKUP_TABLE default
0.237486
0.237486
0.237486
0.237486
0.237486
0.237486
0.237486
0.237486
0.237486
0.237486
0.237486
SCALARS Coverage6 float 1
LOOKUP_TABLE default
0.384296
0.384296
0.384296
0.384296
0.384296
0.384296
0.384296
0.384296
0.384296
0.384296
0.384296
SCALARS Coverage7 float 1
LOOKUP_TABLE default
0.63915
0.63915
0.63915
0.63915
0.63915
0.63915
0.63915
0.63915
0.63915
0.63915
0.63915
SCALARS Coverage8 float 1
LOOKUP_TABLE default
0.917817
0.917817
0.917817
0.917817
0.917817
0.917817
0.917817
0.917817
0.917817
0.917817
0.917817
SCALARS Coverage9 float 1
LOOKUP_TABLE default
0.00241552
0.00241552
0.00241552
0.00241552
0.00241552
0.00241552
0.00241552
0.00241552
0.00241552
0.00241552
0.00241552
SCALARS Coverage10 float 1
LOOKUP_TABLE default
0.0797677
0.0797677
0.0797677
0.0797677
0.0797677
0.0797677
0.0797677
0.0797677
0.0797677
0.0797677
0.0797677
SCALARS Coverage11 float 1
LOOKUP_TABLE default
0.00275043
0.00275043
0.00275043
0.00275043
0.00275043
0.00275043
0.00275043
0.00275043
0.00275043
0.00275043
0.00275043
