# vtk DataFile Version 2.0
2D Surface
ASCII
DATASET UNSTRUCTURED_GRID
POINTS 11 float
0 12.9385 0. 
1 12.9385 0. 
2 12.9385 0. 
3 12.9385 0. 
4 12.9385 0. 
5 12.9385 0. 
6 12.9385 0. 
7 12.9385 0. 
8 12.9385 0. 
9 12.9385 0. 
10 12.9385 0. 
CELLS 10 30
2 0 1 
2 1 2 
2 2 3 
2 3 4 
2 4 5 
2 5 6 
2 6 7 
2 7 8 
2 8 9 
2 9 10 
CELL_TYPES 10
3
3
3
3
3
3
3
3
3
3
POINT_DATA 11
SCALARS Velocities float 1
LOOKUP_TABLE default
0.139344
0.139344
0.139344
0.139344
0.139344
0.139344
0.139344
0.139344
0.139344
0.139344
0.139344
SCALARS Coverage0 float 1
LOOKUP_TABLE default
0.538608
0.538608
0.538608
0.538608
0.538608
0.538608
0.538608
0.538608
0.538608
0.538608
0.538608
SCALARS Coverage1 float 1
LOOKUP_TABLE default
0.262535
0.262535
0.262535
0.262535
0.262535
0.262535
0.262535
0.262535
0.262535
0.262535
0.262535
SCALARS Coverage2 float 1
LOOKUP_TABLE default
0.264468
0.264468
0.264468
0.264468
0.264468
0.264468
0.264468
0.264468
0.264468
0.264468
0.264468
SCALARS Coverage3 float 1
LOOKUP_TABLE default
0.389871
0.389871
0.389871
0.389871
0.389871
0.389871
0.389871
0.389871
0.389871
0.389871
0.389871
SCALARS Coverage4 float 1
LOOKUP_TABLE default
0.345661
0.345661
0.345661
0.345661
0.345661
0.345661
0.345661
0.345661
0.345661
0.345661
0.345661
SCALARS Coverage5 float 1
LOOKUP_TABLE default
0.321285
0.321285
0.321285
0.321285
0.321285
0.321285
0.321285
0.321285
0.321285
0.321285
0.321285
SCALARS Coverage6 float 1
LOOKUP_TABLE default
0.384576
0.384576
0.384576
0.384576
0.384576
0.384576
0.384576
0.384576
0.384576
0.384576
0.384576
SCALARS Coverage7 float 1
LOOKUP_TABLE default
0.649642
0.649642
0.649642
0.649642
0.649642
0.649642
0.649642
0.649642
0.649642
0.649642
0.649642
SCALARS Coverage8 float 1
LOOKUP_TABLE default
0.928479
0.928479
0.928479
0.928479
0.928479
0.928479
0.928479
0.928479
0.928479
0.928479
0.928479
SCALARS Coverage9 float 1
LOOKUP_TABLE default
0.00193285
0.00193285
0.00193285
0.00193285
0.00193285
0.00193285
0.00193285
0.00193285
0.00193285
0.00193285
0.00193285
SCALARS Coverage10 float 1
LOOKUP_TABLE default
0.0695881
0.0695881
0.0695881
0.0695881
0.0695881
0.0695881
0.0695881
0.0695881
0.0695881
0.0695881
0.0695881
SCALARS Coverage11 float 1
LOOKUP_TABLE default
0.00210487
0.00210487
0.00210487
0.00210487
0.00210487
0.00210487
0.00210487
0.00210487
0.00210487
0.00210487
0.00210487
