# vtk DataFile Version 2.0
2D Surface
ASCII
DATASET UNSTRUCTURED_GRID
POINTS 11 float
0 16.5791 0. 
1 16.5791 0. 
2 16.5791 0. 
3 16.5791 0. 
4 16.5791 0. 
5 16.5791 0. 
6 16.5791 0. 
7 16.5791 0. 
8 16.5791 0. 
9 16.5791 0. 
10 16.5791 0. 
CELLS 10 30
2 0 1 
2 1 2 
2 2 3 
2 3 4 
2 4 5 
2 5 6 
2 6 7 
2 7 8 
2 8 9 
2 9 10 
CELL_TYPES 10
3
3
3
3
3
3
3
3
3
3
POINT_DATA 11
SCALARS Velocities float 1
LOOKUP_TABLE default
0.247357
0.247357
0.247357
0.247357
0.247357
0.247357
0.247357
0.247357
0.247357
0.247357
0.247357
SCALARS Coverage0 float 1
LOOKUP_TABLE default
0.190244
0.190244
0.190244
0.190244
0.190244
0.190244
0.190244
0.190244
0.190244
0.190244
0.190244
SCALARS Coverage1 float 1
LOOKUP_TABLE default
0.0432412
0.0432412
0.0432412
0.0432412
0.0432412
0.0432412
0.0432412
0.0432412
0.0432412
0.0432412
0.0432412
SCALARS Coverage2 float 1
LOOKUP_TABLE default
0.045174
0.045174
0.045174
0.045174
0.045174
0.045174
0.045174
0.045174
0.045174
0.045174
0.045174
SCALARS Coverage3 float 1
LOOKUP_TABLE default
0.738235
0.738235
0.738235
0.738235
0.738235
0.738235
0.738235
0.738235
0.738235
0.738235
0.738235
SCALARS Coverage4 float 1
LOOKUP_TABLE default
0.216591
0.216591
0.216591
0.216591
0.216591
0.216591
0.216591
0.216591
0.216591
0.216591
0.216591
SCALARS Coverage5 float 1
LOOKUP_TABLE default
0.570738
0.570738
0.570738
0.570738
0.570738
0.570738
0.570738
0.570738
0.570738
0.570738
0.570738
SCALARS Coverage6 float 1
LOOKUP_TABLE default
0.384576
0.384576
0.384576
0.384576
0.384576
0.384576
0.384576
0.384576
0.384576
0.384576
0.384576
SCALARS Coverage7 float 1
LOOKUP_TABLE default
0.649642
0.649642
0.649642
0.649642
0.649642
0.649642
0.649642
0.649642
0.649642
0.649642
0.649642
SCALARS Coverage8 float 1
LOOKUP_TABLE default
0.928479
0.928479
0.928479
0.928479
0.928479
0.928479
0.928479
0.928479
0.928479
0.928479
0.928479
SCALARS Coverage9 float 1
LOOKUP_TABLE default
0.00193285
0.00193285
0.00193285
0.00193285
0.00193285
0.00193285
0.00193285
0.00193285
0.00193285
0.00193285
0.00193285
SCALARS Coverage10 float 1
LOOKUP_TABLE default
0.0695881
0.0695881
0.0695881
0.0695881
0.0695881
0.0695881
0.0695881
0.0695881
0.0695881
0.0695881
0.0695881
SCALARS Coverage11 float 1
LOOKUP_TABLE default
0.00210487
0.00210487
0.00210487
0.00210487
0.00210487
0.00210487
0.00210487
0.00210487
0.00210487
0.00210487
0.00210487
