# vtk DataFile Version 2.0
2D Surface
ASCII
DATASET UNSTRUCTURED_GRID
POINTS 11 float
0 0.917597 0. 
1 0.917597 0. 
2 0.917597 0. 
3 0.917597 0. 
4 0.917597 0. 
5 0.917597 0. 
6 0.917597 0. 
7 0.917597 0. 
8 0.917597 0. 
9 0.917597 0. 
10 0.917597 0. 
CELLS 10 30
2 0 1 
2 1 2 
2 2 3 
2 3 4 
2 4 5 
2 5 6 
2 6 7 
2 7 8 
2 8 9 
2 9 10 
CELL_TYPES 10
3
3
3
3
3
3
3
3
3
3
POINT_DATA 11
SCALARS Velocities float 1
LOOKUP_TABLE default
0.149932
0.149932
0.149932
0.149932
0.149932
0.149932
0.149932
0.149932
0.149932
0.149932
0.149932
SCALARS Coverage0 float 1
LOOKUP_TABLE default
0.505007
0.505007
0.505007
0.505007
0.505007
0.505007
0.505007
0.505007
0.505007
0.505007
0.505007
SCALARS Coverage1 float 1
LOOKUP_TABLE default
0.23206
0.23206
0.23206
0.23206
0.23206
0.23206
0.23206
0.23206
0.23206
0.23206
0.23206
SCALARS Coverage2 float 1
LOOKUP_TABLE default
0.234006
0.234006
0.234006
0.234006
0.234006
0.234006
0.234006
0.234006
0.234006
0.234006
0.234006
SCALARS Coverage3 float 1
LOOKUP_TABLE default
0.422971
0.422971
0.422971
0.422971
0.422971
0.422971
0.422971
0.422971
0.422971
0.422971
0.422971
SCALARS Coverage4 float 1
LOOKUP_TABLE default
0.343023
0.343023
0.343023
0.343023
0.343023
0.343023
0.343023
0.343023
0.343023
0.343023
0.343023
SCALARS Coverage5 float 1
LOOKUP_TABLE default
0.345733
0.345733
0.345733
0.345733
0.345733
0.345733
0.345733
0.345733
0.345733
0.345733
0.345733
SCALARS Coverage6 float 1
LOOKUP_TABLE default
0.39229
0.39229
0.39229
0.39229
0.39229
0.39229
0.39229
0.39229
0.39229
0.39229
0.39229
SCALARS Coverage7 float 1
LOOKUP_TABLE default
0.65565
0.65565
0.65565
0.65565
0.65565
0.65565
0.65565
0.65565
0.65565
0.65565
0.65565
SCALARS Coverage8 float 1
LOOKUP_TABLE default
0.927978
0.927978
0.927978
0.927978
0.927978
0.927978
0.927978
0.927978
0.927978
0.927978
0.927978
SCALARS Coverage9 float 1
LOOKUP_TABLE default
0.00194615
0.00194615
0.00194615
0.00194615
0.00194615
0.00194615
0.00194615
0.00194615
0.00194615
0.00194615
0.00194615
SCALARS Coverage10 float 1
LOOKUP_TABLE default
0.0700763
0.0700763
0.0700763
0.0700763
0.0700763
0.0700763
0.0700763
0.0700763
0.0700763
0.0700763
0.0700763
SCALARS Coverage11 float 1
LOOKUP_TABLE default
0.00212226
0.00212226
0.00212226
0.00212226
0.00212226
0.00212226
0.00212226
0.00212226
0.00212226
0.00212226
0.00212226
