# vtk DataFile Version 2.0
2D Surface
ASCII
DATASET UNSTRUCTURED_GRID
POINTS 11 float
0 0.436268 0. 
1 0.436268 0. 
2 0.436268 0. 
3 0.436268 0. 
4 0.436268 0. 
5 0.436268 0. 
6 0.436268 0. 
7 0.436268 0. 
8 0.436268 0. 
9 0.436268 0. 
10 0.436268 0. 
CELLS 10 30
2 0 1 
2 1 2 
2 2 3 
2 3 4 
2 4 5 
2 5 6 
2 6 7 
2 7 8 
2 8 9 
2 9 10 
CELL_TYPES 10
3
3
3
3
3
3
3
3
3
3
POINT_DATA 11
SCALARS Velocities float 1
LOOKUP_TABLE default
0.126705
0.126705
0.126705
0.126705
0.126705
0.126705
0.126705
0.126705
0.126705
0.126705
0.126705
SCALARS Coverage0 float 1
LOOKUP_TABLE default
0.63691
0.63691
0.63691
0.63691
0.63691
0.63691
0.63691
0.63691
0.63691
0.63691
0.63691
SCALARS Coverage1 float 1
LOOKUP_TABLE default
0.391858
0.391858
0.391858
0.391858
0.391858
0.391858
0.391858
0.391858
0.391858
0.391858
0.391858
SCALARS Coverage2 float 1
LOOKUP_TABLE default
0.394236
0.394236
0.394236
0.394236
0.394236
0.394236
0.394236
0.394236
0.394236
0.394236
0.394236
SCALARS Coverage3 float 1
LOOKUP_TABLE default
0.272328
0.272328
0.272328
0.272328
0.272328
0.272328
0.272328
0.272328
0.272328
0.272328
0.272328
SCALARS Coverage4 float 1
LOOKUP_TABLE default
0.333436
0.333436
0.333436
0.333436
0.333436
0.333436
0.333436
0.333436
0.333436
0.333436
0.333436
SCALARS Coverage5 float 1
LOOKUP_TABLE default
0.232618
0.232618
0.232618
0.232618
0.232618
0.232618
0.232618
0.232618
0.232618
0.232618
0.232618
SCALARS Coverage6 float 1
LOOKUP_TABLE default
0.29415
0.29415
0.29415
0.29415
0.29415
0.29415
0.29415
0.29415
0.29415
0.29415
0.29415
SCALARS Coverage7 float 1
LOOKUP_TABLE default
0.210474
0.210474
0.210474
0.210474
0.210474
0.210474
0.210474
0.210474
0.210474
0.210474
0.210474
SCALARS Coverage8 float 1
LOOKUP_TABLE default
0.482802
0.482802
0.482802
0.482802
0.482802
0.482802
0.482802
0.482802
0.482802
0.482802
0.482802
SCALARS Coverage9 float 1
LOOKUP_TABLE default
0.100087
0.100087
0.100087
0.100087
0.100087
0.100087
0.100087
0.100087
0.100087
0.100087
0.100087
SCALARS Coverage10 float 1
LOOKUP_TABLE default
0.417112
0.417112
0.417112
0.417112
0.417112
0.417112
0.417112
0.417112
0.417112
0.417112
0.417112
SCALARS Coverage11 float 1
LOOKUP_TABLE default
0.240013
0.240013
0.240013
0.240013
0.240013
0.240013
0.240013
0.240013
0.240013
0.240013
0.240013
