# vtk DataFile Version 2.0
2D Surface
ASCII
DATASET UNSTRUCTURED_GRID
POINTS 11 float
0 3.83742 0. 
1 3.83742 0. 
2 3.83742 0. 
3 3.83742 0. 
4 3.83742 0. 
5 3.83742 0. 
6 3.83742 0. 
7 3.83742 0. 
8 3.83742 0. 
9 3.83742 0. 
10 3.83742 0. 
CELLS 10 30
2 0 1 
2 1 2 
2 2 3 
2 3 4 
2 4 5 
2 5 6 
2 6 7 
2 7 8 
2 8 9 
2 9 10 
CELL_TYPES 10
3
3
3
3
3
3
3
3
3
3
POINT_DATA 11
SCALARS Velocities float 1
LOOKUP_TABLE default
0.103186
0.103186
0.103186
0.103186
0.103186
0.103186
0.103186
0.103186
0.103186
0.103186
0.103186
SCALARS Coverage0 float 1
LOOKUP_TABLE default
0.649642
0.649642
0.649642
0.649642
0.649642
0.649642
0.649642
0.649642
0.649642
0.649642
0.649642
SCALARS Coverage1 float 1
LOOKUP_TABLE default
0.384576
0.384576
0.384576
0.384576
0.384576
0.384576
0.384576
0.384576
0.384576
0.384576
0.384576
SCALARS Coverage2 float 1
LOOKUP_TABLE default
0.386509
0.386509
0.386509
0.386509
0.386509
0.386509
0.386509
0.386509
0.386509
0.386509
0.386509
SCALARS Coverage3 float 1
LOOKUP_TABLE default
0.278837
0.278837
0.278837
0.278837
0.278837
0.278837
0.278837
0.278837
0.278837
0.278837
0.278837
SCALARS Coverage4 float 1
LOOKUP_TABLE default
0.334654
0.334654
0.334654
0.334654
0.334654
0.334654
0.334654
0.334654
0.334654
0.334654
0.334654
SCALARS Coverage5 float 1
LOOKUP_TABLE default
0.237617
0.237617
0.237617
0.237617
0.237617
0.237617
0.237617
0.237617
0.237617
0.237617
0.237617
SCALARS Coverage6 float 1
LOOKUP_TABLE default
0.384094
0.384094
0.384094
0.384094
0.384094
0.384094
0.384094
0.384094
0.384094
0.384094
0.384094
SCALARS Coverage7 float 1
LOOKUP_TABLE default
0.638996
0.638996
0.638996
0.638996
0.638996
0.638996
0.638996
0.638996
0.638996
0.638996
0.638996
SCALARS Coverage8 float 1
LOOKUP_TABLE default
0.917833
0.917833
0.917833
0.917833
0.917833
0.917833
0.917833
0.917833
0.917833
0.917833
0.917833
SCALARS Coverage9 float 1
LOOKUP_TABLE default
0.00241502
0.00241502
0.00241502
0.00241502
0.00241502
0.00241502
0.00241502
0.00241502
0.00241502
0.00241502
0.00241502
SCALARS Coverage10 float 1
LOOKUP_TABLE default
0.0797517
0.0797517
0.0797517
0.0797517
0.0797517
0.0797517
0.0797517
0.0797517
0.0797517
0.0797517
0.0797517
SCALARS Coverage11 float 1
LOOKUP_TABLE default
0.00274974
0.00274974
0.00274974
0.00274974
0.00274974
0.00274974
0.00274974
0.00274974
0.00274974
0.00274974
0.00274974
