# vtk DataFile Version 2.0
2D Surface
ASCII
DATASET UNSTRUCTURED_GRID
POINTS 11 float
0 1.69458 0. 
1 1.69458 0. 
2 1.69458 0. 
3 1.69458 0. 
4 1.69458 0. 
5 1.69458 0. 
6 1.69458 0. 
7 1.69458 0. 
8 1.69458 0. 
9 1.69458 0. 
10 1.69458 0. 
CELLS 10 30
2 0 1 
2 1 2 
2 2 3 
2 3 4 
2 4 5 
2 5 6 
2 6 7 
2 7 8 
2 8 9 
2 9 10 
CELL_TYPES 10
3
3
3
3
3
3
3
3
3
3
POINT_DATA 11
SCALARS Velocities float 1
LOOKUP_TABLE default
0.128403
0.128403
0.128403
0.128403
0.128403
0.128403
0.128403
0.128403
0.128403
0.128403
0.128403
SCALARS Coverage0 float 1
LOOKUP_TABLE default
0.649633
0.649633
0.649633
0.649633
0.649633
0.649633
0.649633
0.649633
0.649633
0.649633
0.649633
SCALARS Coverage1 float 1
LOOKUP_TABLE default
0.384581
0.384581
0.384581
0.384581
0.384581
0.384581
0.384581
0.384581
0.384581
0.384581
0.384581
SCALARS Coverage2 float 1
LOOKUP_TABLE default
0.386514
0.386514
0.386514
0.386514
0.386514
0.386514
0.386514
0.386514
0.386514
0.386514
0.386514
SCALARS Coverage3 float 1
LOOKUP_TABLE default
0.278832
0.278832
0.278832
0.278832
0.278832
0.278832
0.278832
0.278832
0.278832
0.278832
0.278832
SCALARS Coverage4 float 1
LOOKUP_TABLE default
0.334653
0.334653
0.334653
0.334653
0.334653
0.334653
0.334653
0.334653
0.334653
0.334653
0.334653
SCALARS Coverage5 float 1
LOOKUP_TABLE default
0.237613
0.237613
0.237613
0.237613
0.237613
0.237613
0.237613
0.237613
0.237613
0.237613
0.237613
SCALARS Coverage6 float 1
LOOKUP_TABLE default
0.287922
0.287922
0.287922
0.287922
0.287922
0.287922
0.287922
0.287922
0.287922
0.287922
0.287922
SCALARS Coverage7 float 1
LOOKUP_TABLE default
0.209046
0.209046
0.209046
0.209046
0.209046
0.209046
0.209046
0.209046
0.209046
0.209046
0.209046
SCALARS Coverage8 float 1
LOOKUP_TABLE default
0.487878
0.487878
0.487878
0.487878
0.487878
0.487878
0.487878
0.487878
0.487878
0.487878
0.487878
SCALARS Coverage9 float 1
LOOKUP_TABLE default
0.098592
0.098592
0.098592
0.098592
0.098592
0.098592
0.098592
0.098592
0.098592
0.098592
0.098592
SCALARS Coverage10 float 1
LOOKUP_TABLE default
0.41353
0.41353
0.41353
0.41353
0.41353
0.41353
0.41353
0.41353
0.41353
0.41353
0.41353
SCALARS Coverage11 float 1
LOOKUP_TABLE default
0.235719
0.235719
0.235719
0.235719
0.235719
0.235719
0.235719
0.235719
0.235719
0.235719
0.235719
