# vtk DataFile Version 2.0
2D Surface
ASCII
DATASET UNSTRUCTURED_GRID
POINTS 11 float
0 4.87872 0. 
1 4.87872 0. 
2 4.87872 0. 
3 4.87872 0. 
4 4.87872 0. 
5 4.87872 0. 
6 4.87872 0. 
7 4.87872 0. 
8 4.87872 0. 
9 4.87872 0. 
10 4.87872 0. 
CELLS 10 30
2 0 1 
2 1 2 
2 2 3 
2 3 4 
2 4 5 
2 5 6 
2 6 7 
2 7 8 
2 8 9 
2 9 10 
CELL_TYPES 10
3
3
3
3
3
3
3
3
3
3
POINT_DATA 11
SCALARS Velocities float 1
LOOKUP_TABLE default
0.117639
0.117639
0.117639
0.117639
0.117639
0.117639
0.117639
0.117639
0.117639
0.117639
0.117639
SCALARS Coverage0 float 1
LOOKUP_TABLE default
0.649642
0.649642
0.649642
0.649642
0.649642
0.649642
0.649642
0.649642
0.649642
0.649642
0.649642
SCALARS Coverage1 float 1
LOOKUP_TABLE default
0.384576
0.384576
0.384576
0.384576
0.384576
0.384576
0.384576
0.384576
0.384576
0.384576
0.384576
SCALARS Coverage2 float 1
LOOKUP_TABLE default
0.386509
0.386509
0.386509
0.386509
0.386509
0.386509
0.386509
0.386509
0.386509
0.386509
0.386509
SCALARS Coverage3 float 1
LOOKUP_TABLE default
0.278837
0.278837
0.278837
0.278837
0.278837
0.278837
0.278837
0.278837
0.278837
0.278837
0.278837
SCALARS Coverage4 float 1
LOOKUP_TABLE default
0.334654
0.334654
0.334654
0.334654
0.334654
0.334654
0.334654
0.334654
0.334654
0.334654
0.334654
SCALARS Coverage5 float 1
LOOKUP_TABLE default
0.237617
0.237617
0.237617
0.237617
0.237617
0.237617
0.237617
0.237617
0.237617
0.237617
0.237617
SCALARS Coverage6 float 1
LOOKUP_TABLE default
0.324062
0.324062
0.324062
0.324062
0.324062
0.324062
0.324062
0.324062
0.324062
0.324062
0.324062
SCALARS Coverage7 float 1
LOOKUP_TABLE default
0.287361
0.287361
0.287361
0.287361
0.287361
0.287361
0.287361
0.287361
0.287361
0.287361
0.287361
SCALARS Coverage8 float 1
LOOKUP_TABLE default
0.566198
0.566198
0.566198
0.566198
0.566198
0.566198
0.566198
0.566198
0.566198
0.566198
0.566198
SCALARS Coverage9 float 1
LOOKUP_TABLE default
0.0624468
0.0624468
0.0624468
0.0624468
0.0624468
0.0624468
0.0624468
0.0624468
0.0624468
0.0624468
0.0624468
SCALARS Coverage10 float 1
LOOKUP_TABLE default
0.371355
0.371355
0.371355
0.371355
0.371355
0.371355
0.371355
0.371355
0.371355
0.371355
0.371355
SCALARS Coverage11 float 1
LOOKUP_TABLE default
0.136269
0.136269
0.136269
0.136269
0.136269
0.136269
0.136269
0.136269
0.136269
0.136269
0.136269
