# vtk DataFile Version 2.0
2D Surface
ASCII
DATASET UNSTRUCTURED_GRID
POINTS 11 float
0 5.70224 0. 
1 5.70224 0. 
2 5.70224 0. 
3 5.70224 0. 
4 5.70224 0. 
5 5.70224 0. 
6 5.70224 0. 
7 5.70224 0. 
8 5.70224 0. 
9 5.70224 0. 
10 5.70224 0. 
CELLS 10 30
2 0 1 
2 1 2 
2 2 3 
2 3 4 
2 4 5 
2 5 6 
2 6 7 
2 7 8 
2 8 9 
2 9 10 
CELL_TYPES 10
3
3
3
3
3
3
3
3
3
3
POINT_DATA 11
SCALARS Velocities float 1
LOOKUP_TABLE default
0.103343
0.103343
0.103343
0.103343
0.103343
0.103343
0.103343
0.103343
0.103343
0.103343
0.103343
SCALARS Coverage0 float 1
LOOKUP_TABLE default
0.649642
0.649642
0.649642
0.649642
0.649642
0.649642
0.649642
0.649642
0.649642
0.649642
0.649642
SCALARS Coverage1 float 1
LOOKUP_TABLE default
0.384576
0.384576
0.384576
0.384576
0.384576
0.384576
0.384576
0.384576
0.384576
0.384576
0.384576
SCALARS Coverage2 float 1
LOOKUP_TABLE default
0.386509
0.386509
0.386509
0.386509
0.386509
0.386509
0.386509
0.386509
0.386509
0.386509
0.386509
SCALARS Coverage3 float 1
LOOKUP_TABLE default
0.278837
0.278837
0.278837
0.278837
0.278837
0.278837
0.278837
0.278837
0.278837
0.278837
0.278837
SCALARS Coverage4 float 1
LOOKUP_TABLE default
0.334654
0.334654
0.334654
0.334654
0.334654
0.334654
0.334654
0.334654
0.334654
0.334654
0.334654
SCALARS Coverage5 float 1
LOOKUP_TABLE default
0.237617
0.237617
0.237617
0.237617
0.237617
0.237617
0.237617
0.237617
0.237617
0.237617
0.237617
SCALARS Coverage6 float 1
LOOKUP_TABLE default
0.383069
0.383069
0.383069
0.383069
0.383069
0.383069
0.383069
0.383069
0.383069
0.383069
0.383069
SCALARS Coverage7 float 1
LOOKUP_TABLE default
0.619314
0.619314
0.619314
0.619314
0.619314
0.619314
0.619314
0.619314
0.619314
0.619314
0.619314
SCALARS Coverage8 float 1
LOOKUP_TABLE default
0.898151
0.898151
0.898151
0.898151
0.898151
0.898151
0.898151
0.898151
0.898151
0.898151
0.898151
SCALARS Coverage9 float 1
LOOKUP_TABLE default
0.00344028
0.00344028
0.00344028
0.00344028
0.00344028
0.00344028
0.00344028
0.00344028
0.00344028
0.00344028
0.00344028
SCALARS Coverage10 float 1
LOOKUP_TABLE default
0.0984086
0.0984086
0.0984086
0.0984086
0.0984086
0.0984086
0.0984086
0.0984086
0.0984086
0.0984086
0.0984086
SCALARS Coverage11 float 1
LOOKUP_TABLE default
0.00420436
0.00420436
0.00420436
0.00420436
0.00420436
0.00420436
0.00420436
0.00420436
0.00420436
0.00420436
0.00420436
