# vtk DataFile Version 2.0
2D Surface
ASCII
DATASET UNSTRUCTURED_GRID
POINTS 11 float
0 2.0686 0. 
1 2.0686 0. 
2 2.0686 0. 
3 2.0686 0. 
4 2.0686 0. 
5 2.0686 0. 
6 2.0686 0. 
7 2.0686 0. 
8 2.0686 0. 
9 2.0686 0. 
10 2.0686 0. 
CELLS 10 30
2 0 1 
2 1 2 
2 2 3 
2 3 4 
2 4 5 
2 5 6 
2 6 7 
2 7 8 
2 8 9 
2 9 10 
CELL_TYPES 10
3
3
3
3
3
3
3
3
3
3
POINT_DATA 11
SCALARS Velocities float 1
LOOKUP_TABLE default
0.230684
0.230684
0.230684
0.230684
0.230684
0.230684
0.230684
0.230684
0.230684
0.230684
0.230684
SCALARS Coverage0 float 1
LOOKUP_TABLE default
0.245373
0.245373
0.245373
0.245373
0.245373
0.245373
0.245373
0.245373
0.245373
0.245373
0.245373
SCALARS Coverage1 float 1
LOOKUP_TABLE default
0.064877
0.064877
0.064877
0.064877
0.064877
0.064877
0.064877
0.064877
0.064877
0.064877
0.064877
SCALARS Coverage2 float 1
LOOKUP_TABLE default
0.0668098
0.0668098
0.0668098
0.0668098
0.0668098
0.0668098
0.0668098
0.0668098
0.0668098
0.0668098
0.0668098
SCALARS Coverage3 float 1
LOOKUP_TABLE default
0.683106
0.683106
0.683106
0.683106
0.683106
0.683106
0.683106
0.683106
0.683106
0.683106
0.683106
SCALARS Coverage4 float 1
LOOKUP_TABLE default
0.250085
0.250085
0.250085
0.250085
0.250085
0.250085
0.250085
0.250085
0.250085
0.250085
0.250085
SCALARS Coverage5 float 1
LOOKUP_TABLE default
0.532231
0.532231
0.532231
0.532231
0.532231
0.532231
0.532231
0.532231
0.532231
0.532231
0.532231
SCALARS Coverage6 float 1
LOOKUP_TABLE default
0.384582
0.384582
0.384582
0.384582
0.384582
0.384582
0.384582
0.384582
0.384582
0.384582
0.384582
SCALARS Coverage7 float 1
LOOKUP_TABLE default
0.649647
0.649647
0.649647
0.649647
0.649647
0.649647
0.649647
0.649647
0.649647
0.649647
0.649647
SCALARS Coverage8 float 1
LOOKUP_TABLE default
0.928479
0.928479
0.928479
0.928479
0.928479
0.928479
0.928479
0.928479
0.928479
0.928479
0.928479
SCALARS Coverage9 float 1
LOOKUP_TABLE default
0.00193285
0.00193285
0.00193285
0.00193285
0.00193285
0.00193285
0.00193285
0.00193285
0.00193285
0.00193285
0.00193285
SCALARS Coverage10 float 1
LOOKUP_TABLE default
0.0695882
0.0695882
0.0695882
0.0695882
0.0695882
0.0695882
0.0695882
0.0695882
0.0695882
0.0695882
0.0695882
SCALARS Coverage11 float 1
LOOKUP_TABLE default
0.00210487
0.00210487
0.00210487
0.00210487
0.00210487
0.00210487
0.00210487
0.00210487
0.00210487
0.00210487
0.00210487
