# vtk DataFile Version 2.0
2D Surface
ASCII
DATASET UNSTRUCTURED_GRID
POINTS 11 float
0 18.0199 0. 
1 18.0199 0. 
2 18.0199 0. 
3 18.0199 0. 
4 18.0199 0. 
5 18.0199 0. 
6 18.0199 0. 
7 18.0199 0. 
8 18.0199 0. 
9 18.0199 0. 
10 18.0199 0. 
CELLS 10 30
2 0 1 
2 1 2 
2 2 3 
2 3 4 
2 4 5 
2 5 6 
2 6 7 
2 7 8 
2 8 9 
2 9 10 
CELL_TYPES 10
3
3
3
3
3
3
3
3
3
3
POINT_DATA 11
SCALARS Velocities float 1
LOOKUP_TABLE default
0.120018
0.120018
0.120018
0.120018
0.120018
0.120018
0.120018
0.120018
0.120018
0.120018
0.120018
SCALARS Coverage0 float 1
LOOKUP_TABLE default
0.598303
0.598303
0.598303
0.598303
0.598303
0.598303
0.598303
0.598303
0.598303
0.598303
0.598303
SCALARS Coverage1 float 1
LOOKUP_TABLE default
0.324012
0.324012
0.324012
0.324012
0.324012
0.324012
0.324012
0.324012
0.324012
0.324012
0.324012
SCALARS Coverage2 float 1
LOOKUP_TABLE default
0.325945
0.325945
0.325945
0.325945
0.325945
0.325945
0.325945
0.325945
0.325945
0.325945
0.325945
SCALARS Coverage3 float 1
LOOKUP_TABLE default
0.330176
0.330176
0.330176
0.330176
0.330176
0.330176
0.330176
0.330176
0.330176
0.330176
0.330176
SCALARS Coverage4 float 1
LOOKUP_TABLE default
0.343879
0.343879
0.343879
0.343879
0.343879
0.343879
0.343879
0.343879
0.343879
0.343879
0.343879
SCALARS Coverage5 float 1
LOOKUP_TABLE default
0.276651
0.276651
0.276651
0.276651
0.276651
0.276651
0.276651
0.276651
0.276651
0.276651
0.276651
SCALARS Coverage6 float 1
LOOKUP_TABLE default
0.384576
0.384576
0.384576
0.384576
0.384576
0.384576
0.384576
0.384576
0.384576
0.384576
0.384576
SCALARS Coverage7 float 1
LOOKUP_TABLE default
0.649642
0.649642
0.649642
0.649642
0.649642
0.649642
0.649642
0.649642
0.649642
0.649642
0.649642
SCALARS Coverage8 float 1
LOOKUP_TABLE default
0.928479
0.928479
0.928479
0.928479
0.928479
0.928479
0.928479
0.928479
0.928479
0.928479
0.928479
SCALARS Coverage9 float 1
LOOKUP_TABLE default
0.00193285
0.00193285
0.00193285
0.00193285
0.00193285
0.00193285
0.00193285
0.00193285
0.00193285
0.00193285
0.00193285
SCALARS Coverage10 float 1
LOOKUP_TABLE default
0.0695881
0.0695881
0.0695881
0.0695881
0.0695881
0.0695881
0.0695881
0.0695881
0.0695881
0.0695881
0.0695881
SCALARS Coverage11 float 1
LOOKUP_TABLE default
0.00210487
0.00210487
0.00210487
0.00210487
0.00210487
0.00210487
0.00210487
0.00210487
0.00210487
0.00210487
0.00210487
